; POP2_45 -> PO - Phosphatidylinositol 4,5-bisphosphate
;
;        P5     P4
;        |       \
;       C2 — — — C3  ## P4 - P5 suplementary bond not shown
;         \  C4  /         
;          \    /  
;            C1   
;            |
;          PO4
;         /  |
;      GL2 - GL1
;      |     |
;   ChainA  ChainB   
;

[ moleculetype ]
; molname      nrexcl
  PIP2           1

[ atoms ]
; id 	type 	resnr 	residu 	atom 	cgnr 	charge  mass
   1 	SP1 	 1 	    POP2 	C1  	 1 	    0 	
   2 	SP1 	 1 	    POP2 	C2  	 2 	    0  	
   3 	SP1 	 1 	    POP2 	C3  	 3 	    0 	
   4 	TC4	     1 	    POP2 	C4  	 4 	    0 	 0
   5 	Q5	     1 	    POP2 	PO4 	 5     -1.0 
   6    D        1      POP2    P4       6     -1.5   
   7    D        1      POP2    P5       7     -1.5
   8 	SN4a     1 	    POP2 	GL1 	 8 	    0    
   9 	N4a      1 	    POP2 	GL2 	 9 	    0 	
  10 	C4h 	 1  	POP2 	D1A 	10  	0 	
  11 	C4h	     1  	POP2 	D2A 	11  	0 	
  12 	C4h      1  	POP2 	D3A 	12  	0 	
  13 	C4h      1  	POP2 	D4A 	13  	0 	
  14 	C1 	     1  	POP2 	C1B 	14  	0 	
  15 	C1 	     1  	POP2 	C2B 	15  	0 	
  16 	C1 	     1  	POP2 	C3B 	16  	0 	
  17 	C1 	     1  	POP2 	C4B 	17  	0 	

[ bonds ]
;  i  j 	funct 	length 	force.c.
#ifdef FLEXIBLE
; Using bonds not constraints
   1  2 	1 	0.2770 	30000 	       
   1  3 	1 	0.2865	30000 	
   2  3 	1 	0.3360 	30000 	
#endif
;headgroup phosphates   
   6  3         1       0.325    4250 	     ;P4 C3
   7  2         1       0.337    2500        ;P5 C2
   6  7         1       0.525    1000        ;P4 P5
; Phosphodiester
   1  5     	1    	0.340 	 5000        ;C1 PO4
   5  8     	1   	0.360 	 1700 	     ;PO4 GL1
   5  9     	1   	0.507 	 1000 	     ;PO4 GL2
;lipid tail (Martini v3)   
   8  9 	1 	0.312	2500 	
   8 10 	1 	0.47 	5000 	
  10 11 	1 	0.47  	3800 	
  11 12 	1 	0.47  	3800 	
  12 13 	1 	0.47 	3800 	
   9 14 	1 	0.47 	3600 	
  14 15 	1 	0.47 	3800 	
  15 16 	1 	0.47 	3800 	
  16 17 	1 	0.47 	3800 	

[ angles ]
;  i  j  k 	funct 	angle 	force.c.
;Orient the headgroup   
   2  1  5  	10	   100.0 	50.0    ;  C2  C1 PO4   	
   1  5  8      10      90.0     2.0    ;  C1 PO4 GL1	    
   6  3  2      10      101.0    7.0    ;  P4 C3 C2 	 
   7  2  3      10       97.5   12.5    ;  P5 C2 C3 
; Tail part (uses standar Martini v2.0 tail rules)
   8 10 11 	2 	100.0 	10.0 	
  10 11 12 	2 	100.0 	10.0 	
  11 12 13 	2 	100.0 	10.0 	
   9 14 15 	2 	180.0 	35.0 	
  14 15 16 	2 	180.0 	35.0 	
  15 16 17 	2 	180.0 	35.0 	

[ dihedrals ]
;  i  j  k  l 	funct 	angle 	force.c.
 3  2  1  5       2      -140.0  110.0       ;C3 C2 C1 PO4	    
 2  1  5  8       1       180.0    0.5   2   ;C2 C1 PO4 GL1	     
 6  3  2  1       2       177.0   50.0       ;P4 C3 C2 C1
 7  2  3  1       2       130.0    9.0       ;P5 C2 C3 C1
 
#ifndef FLEXIBLE
[ constraints ]
;  i  j  k 	funct 	length
; Using constraints not bonds
   1  2 	1 	0.2770   ;C1 C2     	      
   1  3 	1 	0.2865   ;C1 C3		      
   2  3 	1 	0.3360   ;C2 C3      	      
#endif
   
[ virtual_sitesn ]
; site funct  constructing atom indices
   4     2     1 2 3

[ exclusions ]
;  i  j
4 3 2 1 5 6 7
3 2 1
2 1

#ifdef BILAYER_LIPIDHEAD_FC
    [ position_restraints ]
    ;to fix Z postion of head grop in bilayer simulation
      5     1.0      0.0      0.0     BILAYER_LIPIDHEAD_FC
#endif
