Insanely solvated protein.
94081
 8077W        W    1  24.210  24.210  51.718
 8078W        W    2  41.227   6.240  53.329
 8079W        W    3  11.772  45.676  51.972
 8080W        W    4   9.277  33.240  52.897
 8081W        W    5  29.215  24.732  52.897
 8082W        W    6  16.754  47.680  53.318
 8083W        W    7  37.729   9.246  51.037
 8084W        W    8   0.765  44.219  50.143
 8085W        W    9  15.259  12.274  49.703
 8086W        W   10  26.721  14.774  52.439
 8087W        W   11  10.758  20.259  53.347
 8088W        W   12  46.701  29.228  49.678
 8089W        W   13  13.244  37.721  53.796
 8090W        W   14  23.752  14.271  51.532
 8091W        W   15  25.225   6.767  50.145
 8092W        W   16  15.228  16.234  52.893
 8093W        W   17  14.767  46.710  52.424
 8094W        W   18  10.278  27.715  49.688
 8095W        W   19  26.718  16.232  53.334
 8096W        W   20  23.731  15.743  52.424
 8097W        W   21  15.734  16.249  52.417
 8098W        W   22  40.185  19.220  53.779
 8099W        W   23   4.268  24.227  49.702
 8100W        W   24  19.254  18.221  52.862
 8101W        W   25   1.292  46.712  52.900
 8102W        W   26  36.196  43.186  50.578
 8103W        W   27  19.234  11.266  50.148
 8104W        W   28  11.769  30.720  53.805
 8105W        W   29  31.743   3.252  51.960
 8106W        W   30  34.741  48.188  52.904
 8107W        W   31   7.752  14.770  50.137
 8108W        W   32  32.218  18.262  50.615
 8109W        W   33  39.708  22.245  49.672
 8110W        W   34   6.243  14.730  52.894
 8111W        W   35  37.704   0.278  51.983
 8112W        W   36  12.754  38.233  49.666
 8113W        W   37  23.725  24.226  53.319
 8114W        W   38  44.719   1.748  51.980
 8115W        W   39   7.781  15.758  49.708
 8116W        W   40  38.708  19.225  52.416
 8117W        W   41   7.775   4.263  49.701
 8118W        W   42  45.695  48.205  51.503
 8119W        W   43   8.766  36.190  52.418
 8120W        W   44  43.692  36.227  53.334
 8121W        W   45  43.696   3.254  50.136
 8122W        W   46  27.224   5.265  52.895
 8123W        W   47  17.229   0.250  50.136
 8124W        W   48  44.699  46.693  51.040
 8125W        W   49   8.779  27.716  50.605
 8126W        W   50   1.759  21.721  51.509
 8127W        W   51  15.770   2.265  52.408
 8128W        W   52  44.203  22.242  53.790
 8129W        W   53  40.229   0.773  51.034
 8130W        W   54   9.258  42.699  53.339
 8131W        W   55   4.251  46.675  51.059
 8132W        W   56  47.683  13.275  52.406
 8133W        W   57  29.222  11.757  51.051
 8134W        W   58  16.767  16.765  51.950
 8135W        W   59  45.699  41.698  50.123
 8136W        W   60  29.242  15.771  53.778
 8137W        W   61   0.760  33.243  52.404
 8138W        W   62  32.723  44.715  51.534
 8139W        W   63  14.275  17.751  50.581
 8140W        W   64  27.708  40.715  51.063
 8141W        W   65  30.216  46.673  50.590
 8142W        W   66  16.248  16.729  51.525
 8143W        W   67  42.706  19.252  50.123
 8144W        W   68  37.717  11.265  52.885
 8145W        W   69  18.751  35.711  50.620
 8146W        W   70  47.214  17.267  51.049
 8147W        W   71  26.717  13.730  50.153
 8148W        W   72  26.741   2.294  50.134
 8149W        W   73  35.719   7.285  53.785
 8150W        W   74  47.199  46.699  50.586
 8151W        W   75  33.206  39.721  51.493
 8152W        W   76  45.678  33.219  49.675
 8153W        W   77  15.243   9.279  51.527
 8154W        W   78   1.766  47.716  52.416
 8155W        W   79  31.206  26.252  51.957
 8156W        W   80  18.740   3.247  50.132
 8157W        W   81  38.211  37.192  49.680
 8158W        W   82  47.713  27.210  51.529
 8159W        W   83   3.265  47.712  52.902
 8160W        W   84   7.270  29.238  50.605
 8161W        W   85  42.726   1.276  50.123
 8162W        W   86  43.686   5.747  49.667
 8163W        W   87  19.749  39.732  51.510
 8164W        W   88  10.763  30.230  52.407
 8165W        W   89  26.753  24.759  50.145
 8166W        W   90  18.261  33.229  52.862
 8167W        W   91  20.252  12.270  51.977
 8168W        W   92  34.731  45.696  50.608
 8169W        W   93  35.207  27.712  52.424
 8170W        W   94  33.715  43.704  51.527
 8171W        W   95  35.241  36.223  50.146
 8172W        W   96   9.775  33.723  51.954
 8173W        W   97   6.276  31.712  50.129
 8174W        W   98  43.228  42.729  52.895
 8175W        W   99  21.743  44.723  52.418
 8176W        W  100  30.700  14.765  53.778
 8177W        W  101  26.230  22.261  53.340
 8178W        W  102  25.215  27.207  50.156
 8179W        W  103  17.770  29.237  51.494
 8180W        W  104  26.240  38.189  53.317
 8181W        W  105  38.197  31.205  50.599
 8182W        W  106  10.276  40.196  51.077
 8183W        W  107  12.742  19.766  51.504
 8184W        W  108  28.249  35.200  51.078
 8185W        W  109  43.222  22.215  52.894
 8186W        W  110   3.781  17.750  49.664
 8187W        W  111  24.722  10.764  51.065
 8188W        W  112  35.700  47.204  52.881
 8189W        W  113   8.768  18.749  51.983
 8190W        W  114  25.220  41.696  51.496
 8191W        W  115  22.235  42.188  52.445
 8192W        W  116  30.732  27.209  52.882
 8193W        W  117   5.743  15.258  51.039
 8194W        W  118  11.238  24.714  51.492
 8195W        W  119  46.202  10.279  53.346
 8196W        W  120   6.770   3.253  52.427
 8197W        W  121  42.219  38.197  50.121
 8198W        W  122  14.239  46.691  53.332
 8199W        W  123  39.712  21.227  53.316
 8200W        W  124  24.216  40.730  51.067
 8201W        W  125  26.250  20.245  51.496
 8202W        W  126  10.269  18.220  49.693
 8203W        W  127  12.266  33.196  49.675
 8204W        W  128   4.766  14.228  50.146
 8205W        W  129  33.231  43.206  52.865
 8206W        W  130  20.219  15.742  51.529
 8207W        W  131  40.693  29.709  53.777
 8208W        W  132  44.712   8.254  53.773
 8209W        W  133  16.240  38.689  53.325
 8210W        W  134  15.269  24.231  52.867
 8211W        W  135   8.240  23.226  52.415
 8212W        W  136  32.213  41.688  51.048
 8213W        W  137  16.764  31.215  52.423
 8214W        W  138   5.289  21.250  50.143
 8215W        W  139  10.768  19.749  51.068
 8216W        W  140  40.209   0.280  52.406
 8217W        W  141  18.760  28.246  51.535
 8218W        W  142  21.215   6.743  49.699
 8219W        W  143  21.226  44.191  51.514
 8220W        W  144  20.732  27.225  49.669
 8221W        W  145  11.748  33.715  49.702
 8222W        W  146  29.705  47.215  52.405
 8223W        W  147   0.271  18.259  51.513
 8224W        W  148  24.234  43.687  53.813
 8225W        W  149  44.721  41.704  51.506
 8226W        W  150  36.690  27.752  51.984
 8227W        W  151  48.183   7.765  49.669
 8228W        W  152  37.199  42.210  51.956
 8229W        W  153  39.706  17.750  50.136
 8230W        W  154   1.295   9.250  53.356
 8231W        W  155   7.255  17.249  51.532
 8232W        W  156   4.765  28.719  51.498
 8233W        W  157  43.219  45.179  52.404
 8234W        W  158  26.208   8.753  52.895
 8235W        W  159  44.690   9.743  51.036
 8236W        W  160  24.752  45.700  51.987
 8237W        W  161  28.706  19.263  52.868
 8238W        W  162   1.797  31.238  51.056
 8239W        W  163  43.719  27.706  52.880
 8240W        W  164  40.685  45.215  49.671
 8241W        W  165  27.731  23.257  52.448
 8242W        W  166  20.727   6.268  51.531
 8243W        W  167  32.228  23.731  51.954
 8244W        W  168   1.785  16.250  50.142
 8245W        W  169  24.237  36.199  53.331
 8246W        W  170  10.771  31.202  52.872
 8247W        W  171   5.291  33.719  51.068
 8248W        W  172  20.719   7.779  51.531
 8249W        W  173   0.269  24.211  52.879
 8250W        W  174   8.247  14.245  52.898
 8251W        W  175   5.760   5.761  51.513
 8252W        W  176  25.222   3.279  53.331
 8253W        W  177  48.213  28.230  53.317
 8254W        W  178   9.254  19.223  52.424
 8255W        W  179  20.260   2.252  50.600
 8256W        W  180  16.745   7.265  50.132
 8257W        W  181  35.707  34.720  51.501
 8258W        W  182  16.739  32.736  50.609
 8259W        W  183   1.793  11.270  50.580
 8260W        W  184   6.280   4.749  49.688
 8261W        W  185  36.715  42.685  49.687
 8262W        W  186  11.258  36.205  53.785
 8263W        W  187  47.212   2.776  53.355
 8264W        W  188  30.205  45.221  51.055
 8265W        W  189  41.710  15.771  53.811
 8266W        W  190  23.738  41.723  52.414
 8267W        W  191   4.752  21.746  51.059
 8268W        W  192  47.178  14.772  51.978
 8269W        W  193  24.211  12.759  49.690
 8270W        W  194  25.224  10.251  52.418
 8271W        W  195  45.712  38.234  53.337
 8272W        W  196   1.757   0.286  53.354
 8273W        W  197  38.220  30.704  49.687
 8274W        W  198  40.211  17.734  52.420
 8275W        W  199   3.759  41.725  49.691
 8276W        W  200   9.742  38.229  53.792
 8277W        W  201  41.726   9.772  50.604
 8278W        W  202  18.733  18.748  50.130
 8279W        W  203   9.260  35.740  51.963
 8280W        W  204  18.243  46.715  50.162
 8281W        W  205  47.677  27.729  51.956
 8282W        W  206  42.729  20.229  50.609
 8283W        W  207  30.726  29.729  50.594
 8284W        W  208  13.765  31.706  51.971
 8285W        W  209  40.708  47.177  51.978
 8286W        W  210   7.238  31.200  50.161
 8287W        W  211  12.275  23.254  53.317
 8288W        W  212  11.277  24.225  51.984
 8289W        W  213   9.776  24.745  53.788
 8290W        W  214   9.749  36.214  53.790
 8291W        W  215  38.214  11.770  51.491
 8292W        W  216  15.244  30.714  51.062
 8293W        W  217  25.754  43.195  49.669
 8294W        W  218  30.708   7.754  53.778
 8295W        W  219  42.712  31.705  52.411
 8296W        W  220  38.736  38.699  53.317
 8297W        W  221   4.288  19.244  51.038
 8298W        W  222  23.224  14.769  51.535
 8299W        W  223  18.758  31.700  49.704
 8300W        W  224  44.710  48.171  52.424
 8301W        W  225  20.752  27.252  50.581
 8302W        W  226  34.711  33.737  50.122
 8303W        W  227  15.237  43.723  50.146
 8304W        W  228  26.709  35.731  52.905
 8305W        W  229  22.760  30.728  50.602
 8306W        W  230  43.186  41.715  49.704
 8307W        W  231   7.787  47.185  53.318
 8308W        W  232  10.252  48.199  50.147
 8309W        W  233  34.243  31.739  50.149
 8310W        W  234  16.231  29.235  50.161
 8311W        W  235  11.774  31.204  50.615
 8312W        W  236  16.270  21.728  53.341
 8313W        W  237  26.244  11.254  51.980
 8314W        W  238  29.735  21.221  52.432
 8315W        W  239   2.255   8.239  51.981
 8316W        W  240   6.242   2.254  49.706
 8317W        W  241  25.717  20.718  53.789
 8318W        W  242  14.268  44.197  53.318
 8319W        W  243  39.734  38.724  53.343
 8320W        W  244  39.190  26.238  49.683
 8321W        W  245  31.225  16.232  53.351
 8322W        W  246  41.182  35.692  50.158
 8323W        W  247  29.241  44.708  52.873
 8324W        W  248  48.211  47.699  52.418
 8325W        W  249  20.251  38.690  51.962
 8326W        W  250  16.233  26.713  52.887
 8327W        W  251  42.227  14.741  53.796
 8328W        W  252  38.233  47.688  51.047
 8329W        W  253  48.210  42.190  49.673
 8330W        W  254  38.223  26.746  51.947
 8331W        W  255  42.707  10.756  52.422
 8332W        W  256  17.248  20.234  50.154
 8333W        W  257  26.255  18.263  52.418
 8334W        W  258  26.251  29.706  52.440
 8335W        W  259  33.743  46.185  51.975
 8336W        W  260  40.701   7.787  51.496
 8337W        W  261   8.779  45.677  49.684
 8338W        W  262  35.231  43.210  51.527
 8339W        W  263  27.735  36.237  53.772
 8340W        W  264  25.734   9.735  50.608
 8341W        W  265  43.712  24.717  52.417
 8342W        W  266  25.251  26.743  52.901
 8343W        W  267  15.771  13.249  51.535
 8344W        W  268  44.221   0.299  52.874
 8345W        W  269  44.199  17.268  51.976
 8346W        W  270   1.255  13.237  50.599
 8347W        W  271  41.199  34.733  49.677
 8348W        W  272  15.768  37.708  51.986
 8349W        W  273  36.193  19.244  53.339
 8350W        W  274  17.264  47.221  50.601
 8351W        W  275   7.239  10.782  53.803
 8352W        W  276   7.274  37.228  51.976
 8353W        W  277  37.193  20.232  52.436
 8354W        W  278  31.239  34.714  51.968
 8355W        W  279  21.251  45.177  50.598
 8356W        W  280   8.237  17.252  53.317
 8357W        W  281   9.772  38.728  49.671
 8358W        W  282  14.748  47.703  53.361
 8359W        W  283   5.779  27.210  49.679
 8360W        W  284  22.747  23.246  50.615
 8361W        W  285   9.768  29.726  51.967
 8362W        W  286  21.736  12.255  52.424
 8363W        W  287   6.278   6.251  51.533
 8364W        W  288   6.765   5.743  51.056
 8365W        W  289  45.213  17.234  51.982
 8366W        W  290  45.713  12.242  52.861
 8367W        W  291  43.681  15.739  50.619
 8368W        W  292  16.732   5.288  53.787
 8369W        W  293  10.245  46.210  51.516
 8370W        W  294  47.204  25.253  52.899
 8371W        W  295   3.784  46.686  50.139
 8372W        W  296  32.713  34.731  50.591
 8373W        W  297  35.696   6.779  52.902
 8374W        W  298  13.259  34.705  53.352
 8375W        W  299  32.204  37.734  50.612
 8376W        W  300   1.296  30.707  53.321
 8377W        W  301  12.255  14.774  50.616
 8378W        W  302  46.198  47.200  52.429
 8379W        W  303  34.740   3.254  49.696
 8380W        W  304  46.220  26.242  51.039
 8381W        W  305  29.239  47.207  49.704
 8382W        W  306  22.737  37.732  53.316
 8383W        W  307  35.735  38.705  51.506
 8384W        W  308  43.200  37.733  50.135
 8385W        W  309  22.246  24.754  53.340
 8386W        W  310  16.737  30.738  50.131
 8387W        W  311  28.229  18.222  53.318
 8388W        W  312  13.739   7.760  51.509
 8389W        W  313   0.781  27.713  50.126
 8390W        W  314  11.242   6.764  51.513
 8391W        W  315  38.712  31.744  52.414
 8392W        W  316  43.706   9.778  52.880
 8393W        W  317  46.219  36.211  50.141
 8394W        W  318  39.206  32.742  50.608
 8395W        W  319  31.701  38.727  51.077
 8396W        W  320  36.738   2.279  52.437
 8397W        W  321  42.223   8.281  52.885
 8398W        W  322  30.200  36.701  50.156
 8399W        W  323  16.257  19.750  52.882
 8400W        W  324  40.728  27.733  53.806
 8401W        W  325  43.715   9.740  53.341
 8402W        W  326   7.260  29.202  53.327
 8403W        W  327   2.262  44.222  51.061
 8404W        W  328   8.754   3.747  51.955
 8405W        W  329   5.773  25.241  50.619
 8406W        W  330  26.740  35.211  53.794
 8407W        W  331  12.246  41.187  50.607
 8408W        W  332  36.706  38.236  51.501
 8409W        W  333  47.220  26.710  51.072
 8410W        W  334  37.689  13.261  50.616
 8411W        W  335  26.735  22.760  50.580
 8412W        W  336  43.722  26.734  53.808
 8413W        W  337  43.685   4.265  49.675
 8414W        W  338  17.749  17.744  51.534
 8415W        W  339  36.718  26.728  50.578
 8416W        W  340  43.723  23.248  53.804
 8417W        W  341  25.237  12.748  53.342
 8418W        W  342  18.252  46.682  53.340
 8419W        W  343  46.182   3.286  53.776
 8420W        W  344  48.171  20.262  51.971
 8421W        W  345  41.226  14.732  51.988
 8422W        W  346  12.746  27.741  52.440
 8423W        W  347  44.189  12.231  51.529
 8424W        W  348  44.184   9.773  49.697
 8425W        W  349  38.200  25.740  51.074
 8426W        W  350   6.743  26.227  51.064
 8427W        W  351  41.715  40.733  49.695
 8428W        W  352  42.716  40.184  51.534
 8429W        W  353  37.692  27.243  51.042
 8430W        W  354  40.723  17.733  52.409
 8431W        W  355   1.779  28.710  50.121
 8432W        W  356  31.705  45.723  52.420
 8433W        W  357  13.262  24.215  52.445
 8434W        W  358   9.778  20.726  52.417
 8435W        W  359  35.224  21.246  53.347
 8436W        W  360  42.717   7.768  51.073
 8437W        W  361  44.684  46.708  52.885
 8438W        W  362   5.748  29.726  53.337
 8439W        W  363  17.236  20.735  51.502
 8440W        W  364  25.727  22.748  52.418
 8441W        W  365  19.737  25.224  53.345
 8442W        W  366  37.692  47.700  51.492
 8443W        W  367  17.768  32.220  50.156
 8444W        W  368  19.233  42.699  51.954
 8445W        W  369  22.748   5.754  51.963
 8446W        W  370  45.713  12.254  51.038
 8447W        W  371  12.234  16.236  51.067
 8448W        W  372  39.732  35.216  50.163
 8449W        W  373  40.224   9.735  53.777
 8450W        W  374  12.766  16.264  53.352
 8451W        W  375  19.730  29.203  51.513
 8452W        W  376  15.254  10.734  52.884
 8453W        W  377  17.261  39.691  49.690
 8454W        W  378  40.708   6.288  51.522
 8455W        W  379  42.229  10.258  51.535
 8456W        W  380  24.216  31.719  51.974
 8457W        W  381  19.757  14.758  52.443
 8458W        W  382  27.229  17.242  51.044
 8459W        W  383  46.677   9.269  49.702
 8460W        W  384  43.203  46.702  51.960
 8461W        W  385  35.723  12.776  51.984
 8462W        W  386   8.753  14.750  52.878
 8463W        W  387  17.266  20.726  51.989
 8464W        W  388  42.701  11.754  51.047
 8465W        W  389  45.193  24.736  53.811
 8466W        W  390   6.781  16.745  49.675
 8467W        W  391  14.275  48.190  51.527
 8468W        W  392   8.284  41.189  53.816
 8469W        W  393  26.221  19.250  49.665
 8470W        W  394  43.684  32.700  53.321
 8471W        W  395  27.711  40.184  50.142
 8472W        W  396   2.268  24.245  50.618
 8473W        W  397  43.219  41.209  52.403
 8474W        W  398  26.242  34.719  53.789
 8475W        W  399  11.244   6.281  51.972
 8476W        W  400   6.777   9.279  52.893
 8477W        W  401  46.714  22.750  51.061
 8478W        W  402  13.244   4.764  53.807
 8479W        W  403  23.731  18.225  50.616
 8480W        W  404  13.772  29.219  51.975
 8481W        W  405  16.226  11.751  51.062
 8482W        W  406  36.698  26.226  51.990
 8483W        W  407  47.695  22.237  49.709
 8484W        W  408  34.740  22.217  50.129
 8485W        W  409  43.697   2.273  50.586
 8486W        W  410  42.218  13.257  52.443
 8487W        W  411  17.770  36.690  51.516
 8488W        W  412  48.197  16.224  50.153
 8489W        W  413  40.692  20.730  52.895
 8490W        W  414  32.723  15.251  53.355
 8491W        W  415  18.249  22.744  52.870
 8492W        W  416  15.239  13.771  52.446
 8493W        W  417  46.178  44.178  51.972
 8494W        W  418   2.783  12.773  52.892
 8495W        W  419  15.756  42.716  51.960
 8496W        W  420   8.758  23.224  50.153
 8497W        W  421   8.266   4.774  53.814
 8498W        W  422  22.233  34.695  49.667
 8499W        W  423  17.230  21.758  52.893
 8500W        W  424  25.211  17.256  53.794
 8501W        W  425  45.688  14.228  52.438
 8502W        W  426  30.721  32.739  49.684
 8503W        W  427  27.243  41.195  52.897
 8504W        W  428  39.717  47.177  51.490
 8505W        W  429  19.242  19.742  51.074
 8506W        W  430   0.756  21.239  52.443
 8507W        W  431  29.205  32.736  52.425
 8508W        W  432  48.220  27.747  51.497
 8509W        W  433  11.761  14.262  53.361
 8510W        W  434  36.198  36.222  50.144
 8511W        W  435  12.263  29.702  53.345
 8512W        W  436   2.774  16.743  49.690
 8513W        W  437   5.279  12.257  53.355
 8514W        W  438   1.752   5.250  52.443
 8515W        W  439  10.265  46.707  51.979
 8516W        W  440  11.271  18.264  53.352
 8517W        W  441  46.201  27.228  52.425
 8518W        W  442   9.261  22.256  52.872
 8519W        W  443  42.201  15.755  50.142
 8520W        W  444   4.771   2.787  51.523
 8521W        W  445  17.743  10.763  51.050
 8522W        W  446  38.690  24.711  52.434
 8523W        W  447  47.216   7.282  51.520
 8524W        W  448  20.755  16.269  50.141
 8525W        W  449  31.741  13.273  52.897
 8526W        W  450  43.224  15.236  52.425
 8527W        W  451  28.727  22.216  53.803
 8528W        W  452   7.762  41.206  50.601
 8529W        W  453   6.261  13.771  50.164
 8530W        W  454  46.207  18.728  51.967
 8531W        W  455  22.716  10.749  49.698
 8532W        W  456   5.755  15.724  53.790
 8533W        W  457  37.196  42.194  53.328
 8534W        W  458  10.246  20.764  53.339
 8535W        W  459  12.234   9.267  51.508
 8536W        W  460  38.731  47.711  49.677
 8537W        W  461  43.206  44.684  51.975
 8538W        W  462   9.770  24.758  51.985
 8539W        W  463  47.716  16.749  50.594
 8540W        W  464  26.247  33.229  53.320
 8541W        W  465  46.687  46.198  51.961
 8542W        W  466  17.752  36.716  52.407
 8543W        W  467   4.264  11.749  53.330
 8544W        W  468  20.252  39.721  51.964
 8545W        W  469  12.746  43.723  50.583
 8546W        W  470  16.754  22.238  49.670
 8547W        W  471  40.728  46.679  51.508
 8548W        W  472   6.745  40.229  53.359
 8549W        W  473  22.240  14.243  52.874
 8550W        W  474   2.259  25.738  50.601
 8551W        W  475  27.711  26.739  53.328
 8552W        W  476   6.743  28.725  52.864
 8553W        W  477   7.267  46.713  50.159
 8554W        W  478  43.680  43.221  52.884
 8555W        W  479  16.772  40.224  53.793
 8556W        W  480  35.218  39.687  53.361
 8557W        W  481  35.208  17.765  51.981
 8558W        W  482  45.215  43.200  52.897
 8559W        W  483  26.219   5.262  50.614
 8560W        W  484  18.243  41.201  49.706
 8561W        W  485   3.263  44.726  52.439
 8562W        W  486   9.774  42.188  52.895
 8563W        W  487  32.205  40.700  53.783
 8564W        W  488  35.706  20.744  50.588
 8565W        W  489  27.716  41.199  51.075
 8566W        W  490  24.243  34.717  52.409
 8567W        W  491  38.687  46.684  50.128
 8568W        W  492  24.232   3.251  51.530
 8569W        W  493  24.719  20.721  51.501
 8570W        W  494  36.208  38.205  50.145
 8571W        W  495   6.759  43.214  51.534
 8572W        W  496  42.703   6.740  51.989
 8573W        W  497  15.226  41.703  52.436
 8574W        W  498  38.729  24.737  50.592
 8575W        W  499  45.190  39.212  52.428
 8576W        W  500  29.225  24.251  52.434
 8577W        W  501  43.679  21.762  52.861
 8578W        W  502  38.212   6.784  52.440
 8579W        W  503  28.219  34.210  49.666
 8580W        W  504  13.233  28.227  52.895
 8581W        W  505  40.690  39.204  53.347
 8582W        W  506   4.746   7.749  50.129
 8583W        W  507  41.226   0.790  51.048
 8584W        W  508  42.711  34.720  53.816
 8585W        W  509  41.184  17.271  51.518
 8586W        W  510   3.245  42.691  53.353
 8587W        W  511  30.746  16.250  52.889
 8588W        W  512  32.237   4.257  50.141
 8589W        W  513  11.734   3.758  50.583
 8590W        W  514  21.726  39.230  50.606
 8591W        W  515  10.757  30.227  51.516
 8592W        W  516  40.221  42.695  52.894
 8593W        W  517   2.788   2.771  50.610
 8594W        W  518   3.765  18.237  51.963
 8595W        W  519  14.233  10.267  53.785
 8596W        W  520  45.686   2.787  51.503
 8597W        W  521  16.264   8.756  53.323
 8598W        W  522  21.731  32.227  49.686
 8599W        W  523  28.253  33.228  52.442
 8600W        W  524   3.753  23.232  51.064
 8601W        W  525  29.726  10.779  50.148
 8602W        W  526  11.769  37.206  51.989
 8603W        W  527  23.230  27.704  51.990
 8604W        W  528  10.272  26.756  53.327
 8605W        W  529  33.714   6.271  49.706
 8606W        W  530  13.271  45.679  50.143
 8607W        W  531  18.761   7.280  49.694
 8608W        W  532  27.217  35.715  49.696
 8609W        W  533   9.280  30.211  52.412
 8610W        W  534   5.756  35.730  52.879
 8611W        W  535   7.256  34.238  50.593
 8612W        W  536  41.709  39.192  50.130
 8613W        W  537  21.739  33.716  51.066
 8614W        W  538  46.215  34.726  52.873
 8615W        W  539  11.780  31.239  51.499
 8616W        W  540  12.276  48.204  53.802
 8617W        W  541   0.267  43.227  53.319
 8618W        W  542  18.222  27.752  49.671
 8619W        W  543  44.691  38.214  52.889
 8620W        W  544  13.775  32.226  50.161
 8621W        W  545   8.270  27.737  51.527
 8622W        W  546  14.766  22.762  51.499
 8623W        W  547  12.261  19.262  49.676
 8624W        W  548   1.754  33.231  51.516
 8625W        W  549   1.296  11.763  49.709
 8626W        W  550  14.748  44.203  52.872
 8627W        W  551   4.780  23.245  52.410
 8628W        W  552  35.708  47.685  53.783
 8629W        W  553  46.181  32.724  51.517
 8630W        W  554  28.725  48.216  50.589
 8631W        W  555  38.206  21.763  49.710
 8632W        W  556  24.713  37.708  52.860
 8633W        W  557  44.222  38.191  50.618
 8634W        W  558  14.246  45.217  51.052
 8635W        W  559  46.212  31.233  51.506
 8636W        W  560  14.242   7.268  49.699
 8637W        W  561  21.257  22.727  53.813
 8638W        W  562  18.722  36.233  52.405
 8639W        W  563  29.233  26.250  53.798
 8640W        W  564  33.726  37.724  53.785
 8641W        W  565  43.723  12.277  50.579
 8642W        W  566  27.226  36.702  53.792
 8643W        W  567  13.768  40.188  51.038
 8644W        W  568  40.186  10.239  51.502
 8645W        W  569  14.758  34.737  52.426
 8646W        W  570  30.749  33.203  51.992
 8647W        W  571  23.232  39.207  53.325
 8648W        W  572  22.259  15.250  52.872
 8649W        W  573  25.214   9.736  51.044
 8650W        W  574  18.740  47.693  50.597
 8651W        W  575  23.237  20.251  50.616
 8652W        W  576  28.713  45.715  53.318
 8653W        W  577  30.203  39.187  51.040
 8654W        W  578   2.768   4.749  53.784
 8655W        W  579  41.184  27.217  49.674
 8656W        W  580  17.266  17.769  52.892
 8657W        W  581  31.707  46.191  51.521
 8658W        W  582  29.228  11.236  50.620
 8659W        W  583  19.726  37.192  50.158
 8660W        W  584   2.294   9.258  52.903
 8661W        W  585   6.752  31.228  49.687
 8662W        W  586  39.728  18.730  49.676
 8663W        W  587  19.251  16.740  50.156
 8664W        W  588  18.753  45.188  52.877
 8665W        W  589  45.208   5.265  49.693
 8666W        W  590   9.751  15.747  52.405
 8667W        W  591  44.185  47.174  50.596
 8668W        W  592  47.217  42.188  52.443
 8669W        W  593  35.703  28.222  52.873
 8670W        W  594  45.198  41.718  52.889
 8671W        W  595  16.239  11.273  50.601
 8672W        W  596  27.210   7.781  52.404
 8673W        W  597  46.700  30.203  51.952
 8674W        W  598  37.212  19.245  52.895
 8675W        W  599  28.215  41.707  52.430
 8676W        W  600   0.774   2.261  52.444
 8677W        W  601  15.756  46.189  51.059
 8678W        W  602  32.216  38.706  53.800
 8679W        W  603   9.746  32.745  52.872
 8680W        W  604  30.737  41.214  50.138
 8681W        W  605  21.736  22.721  53.803
 8682W        W  606  42.222  21.223  53.323
 8683W        W  607  34.717  29.224  53.341
 8684W        W  608  17.242   7.781  49.674
 8685W        W  609  37.688  45.708  52.438
 8686W        W  610  47.184   1.256  53.360
 8687W        W  611  41.231  45.684  53.781
 8688W        W  612  20.260   3.245  51.045
 8689W        W  613  42.211  39.733  53.781
 8690W        W  614  22.239  17.231  53.780
 8691W        W  615  30.733  35.715  52.886
 8692W        W  616   1.254  33.220  51.954
 8693W        W  617  10.283  38.203  52.432
 8694W        W  618  25.228  26.717  49.695
 8695W        W  619  36.194   3.256  49.701
 8696W        W  620  18.225   9.251  51.048
 8697W        W  621  12.266   2.294  51.948
 8698W        W  622  22.258  47.708  51.529
 8699W        W  623  45.199  48.194  53.334
 8700W        W  624  21.730  15.732  51.523
 8701W        W  625  38.709  15.752  53.345
 8702W        W  626  32.239  17.750  50.578
 8703W        W  627   8.268  19.726  50.599
 8704W        W  628  22.217  22.224  53.812
 8705W        W  629  45.692  26.727  50.154
 8706W        W  630   3.793  40.688  51.065
 8707W        W  631  40.189  31.243  51.076
 8708W        W  632  27.227   6.767  52.867
 8709W        W  633  24.218  20.226  52.861
 8710W        W  634  39.708  15.754  53.813
 8711W        W  635  15.270  14.229  52.870
 8712W        W  636  15.248  20.741  51.036
 8713W        W  637  43.716   7.754  52.437
 8714W        W  638  17.240  26.225  49.683
 8715W        W  639  35.229  39.190  51.952
 8716W        W  640   7.276  35.697  51.535
 8717W        W  641  25.246  15.743  50.592
 8718W        W  642  44.217  42.187  53.801
 8719W        W  643  27.214  28.743  52.422
 8720W        W  644  44.225  44.694  51.988
 8721W        W  645  34.224  35.211  51.518
 8722W        W  646  34.725  19.741  49.703
 8723W        W  647  29.228  18.754  51.492
 8724W        W  648  24.755   4.278  50.155
 8725W        W  649  42.201  43.705  53.316
 8726W        W  650   9.757  25.739  53.341
 8727W        W  651   0.264  32.238  51.064
 8728W        W  652   7.783  17.252  51.079
 8729W        W  653  45.698   3.765  53.796
 8730W        W  654   4.247   7.273  52.881
 8731W        W  655  16.271   3.270  50.128
 8732W        W  656  46.712  21.751  50.621
 8733W        W  657   2.790  37.189  51.072
 8734W        W  658  18.768  28.237  49.691
 8735W        W  659  41.194   1.287  53.349
 8736W        W  660  43.179  24.210  51.517
 8737W        W  661  29.232  42.708  50.587
 8738W        W  662  44.222  45.685  51.974
 8739W        W  663   0.288  19.225  53.331
 8740W        W  664  34.729   5.744  52.416
 8741W        W  665  21.225  25.251  50.588
 8742W        W  666  46.217  16.240  51.077
 8743W        W  667   2.269  36.700  53.359
 8744W        W  668  13.769  29.251  51.035
 8745W        W  669  12.754  31.702  52.868
 8746W        W  670  14.274   2.278  49.667
 8747W        W  671  40.697  13.241  53.816
 8748W        W  672  33.719   3.774  51.962
 8749W        W  673  17.721  42.183  51.534
 8750W        W  674  24.217  12.735  51.953
 8751W        W  675  20.262  36.710  51.958
 8752W        W  676  30.744   5.777  53.783
 8753W        W  677  20.234  19.265  50.582
 8754W        W  678  42.717  29.740  51.503
 8755W        W  679   6.762  34.236  50.162
 8756W        W  680   0.269  28.249  53.320
 8757W        W  681  25.748  24.727  50.620
 8758W        W  682  36.709  16.234  50.128
 8759W        W  683  15.756  30.727  53.338
 8760W        W  684  35.739  45.196  50.587
 8761W        W  685   7.787  10.253  50.158
 8762W        W  686  39.730   7.277  51.986
 8763W        W  687  10.756  11.274  53.348
 8764W        W  688  22.731  44.714  51.059
 8765W        W  689  40.208   2.277  51.506
 8766W        W  690  20.757  16.770  53.352
 8767W        W  691   6.243   1.762  51.076
 8768W        W  692  25.210  29.712  51.056
 8769W        W  693  44.189  45.720  50.136
 8770W        W  694  13.228  46.698  51.035
 8771W        W  695  43.709  23.241  49.710
 8772W        W  696  42.684  48.200  50.607
 8773W        W  697  27.725  28.247  51.067
 8774W        W  698  43.705   3.749  53.774
 8775W        W  699  44.685   4.283  53.813
 8776W        W  700  25.226  40.205  50.134
 8777W        W  701  46.720  36.697  51.504
 8778W        W  702  13.766   0.250  49.698
 8779W        W  703  12.233  31.248  53.798
 8780W        W  704  33.707   7.243  52.866
 8781W        W  705   3.284  30.208  52.410
 8782W        W  706  45.711  43.723  49.672
 8783W        W  707   0.267   4.764  51.983
 8784W        W  708  37.698  13.750  53.328
 8785W        W  709  13.753  40.220  53.350
 8786W        W  710  35.722  32.232  50.588
 8787W        W  711  37.723  48.193  50.605
 8788W        W  712  38.231  27.206  51.076
 8789W        W  713   8.280   4.274  51.968
 8790W        W  714   7.766  22.730  51.505
 8791W        W  715  44.210  38.210  52.886
 8792W        W  716  33.215   7.787  50.159
 8793W        W  717   3.262  29.711  53.338
 8794W        W  718  40.724  41.724  51.501
 8795W        W  719   5.761  16.760  50.158
 8796W        W  720   2.777  22.743  50.123
 8797W        W  721   6.275  21.241  50.154
 8798W        W  722  27.216  30.739  52.439
 8799W        W  723  48.179  21.256  51.065
 8800W        W  724  24.226  20.233  53.818
 8801W        W  725  31.726  25.227  50.150
 8802W        W  726   4.284  35.208  53.804
 8803W        W  727  37.734   1.768  51.949
 8804W        W  728   4.263   2.284  52.409
 8805W        W  729  36.217  26.730  52.408
 8806W        W  730   0.787  32.700  49.688
 8807W        W  731  20.250  40.214  50.151
 8808W        W  732  23.720  35.696  51.496
 8809W        W  733  14.235  29.215  50.599
 8810W        W  734  43.200   8.282  53.337
 8811W        W  735   8.745  13.745  49.703
 8812W        W  736  39.226  15.232  53.322
 8813W        W  737  35.695  44.695  50.162
 8814W        W  738  37.200  34.704  50.138
 8815W        W  739   8.745  26.751  53.357
 8816W        W  740  28.715  33.740  53.817
 8817W        W  741  24.748  19.234  52.410
 8818W        W  742   6.258  41.704  52.419
 8819W        W  743  13.261  34.742  50.613
 8820W        W  744  44.200  40.201  49.686
 8821W        W  745  30.720  21.718  49.687
 8822W        W  746  25.713  29.202  50.130
 8823W        W  747   6.271  19.759  50.135
 8824W        W  748   6.252  36.209  51.528
 8825W        W  749  27.254  26.731  51.530
 8826W        W  750  30.710  10.752  51.495
 8827W        W  751  38.729  32.739  49.670
 8828W        W  752  24.756  41.208  50.614
 8829W        W  753  30.739   4.291  53.777
 8830W        W  754  45.676  41.225  52.886
 8831W        W  755  28.242   6.278  50.605
 8832W        W  756   9.750  42.693  51.973
 8833W        W  757  22.756  27.752  53.356
 8834W        W  758  43.726  33.206  53.791
 8835W        W  759  42.188  29.204  51.045
 8836W        W  760  25.747  23.216  49.677
 8837W        W  761  21.726   0.777  53.795
 8838W        W  762  29.722  41.711  50.592
 8839W        W  763  42.714   1.777  51.507
 8840W        W  764  38.707  36.192  53.325
 8841W        W  765  39.702  44.702  50.146
 8842W        W  766  46.197   2.777  51.501
 8843W        W  767  34.222  20.743  52.890
 8844W        W  768  34.721  24.719  51.521
 8845W        W  769  32.246  41.227  50.603
 8846W        W  770   2.249  23.222  50.587
 8847W        W  771  21.222  28.227  52.873
 8848W        W  772   8.279  44.687  53.809
 8849W        W  773  48.219  10.744  52.886
 8850W        W  774  22.253  16.238  50.153
 8851W        W  775  28.749   3.775  50.154
 8852W        W  776  38.699   5.782  51.073
 8853W        W  777  20.748  37.719  52.413
 8854W        W  778  45.181   6.764  53.345
 8855W        W  779  32.227   9.770  52.436
 8856W        W  780  46.680   9.775  52.405
 8857W        W  781  31.212  17.733  50.122
 8858W        W  782   6.784   2.774  50.596
 8859W        W  783   3.268  45.708  51.535
 8860W        W  784  20.763  23.722  53.360
 8861W        W  785  42.211  44.692  51.061
 8862W        W  786  41.187  48.214  50.133
 8863W        W  787  30.743  40.223  52.434
 8864W        W  788   9.274  39.722  53.806
 8865W        W  789  35.213  21.733  51.975
 8866W        W  790  43.225  34.704  49.703
 8867W        W  791  44.682  47.221  53.788
 8868W        W  792   9.239   2.768  53.361
 8869W        W  793  11.776  31.231  50.158
 8870W        W  794  11.254  31.244  50.145
 8871W        W  795  22.744  10.255  50.165
 8872W        W  796  47.684  29.710  51.958
 8873W        W  797  12.262  28.716  52.413
 8874W        W  798  40.707  31.722  50.129
 8875W        W  799  13.236  25.208  51.069
 8876W        W  800  35.220  29.238  50.137
 8877W        W  801  19.238  22.236  50.162
 8878W        W  802  31.214  46.220  53.344
 8879W        W  803  41.707  25.757  53.347
 8880W        W  804  44.707  41.223  53.790
 8881W        W  805  36.218  35.218  50.165
 8882W        W  806  30.206  22.739  51.531
 8883W        W  807  19.738  21.747  49.670
 8884W        W  808  35.730  34.734  53.787
 8885W        W  809  44.196  44.210  53.360
 8886W        W  810   1.289  36.208  52.421
 8887W        W  811  11.274  40.690  53.358
 8888W        W  812  22.214  18.229  53.804
 8889W        W  813  39.701  37.205  53.813
 8890W        W  814  33.698  37.691  50.578
 8891W        W  815   2.784   4.761  52.873
 8892W        W  816  12.261  36.199  53.345
 8893W        W  817  25.713  25.734  51.530
 8894W        W  818  15.250  39.226  51.955
 8895W        W  819  42.694  36.733  52.884
 8896W        W  820  31.713  48.173  51.071
 8897W        W  821   3.252  48.172  53.783
 8898W        W  822  11.754  25.732  49.673
 8899W        W  823  19.256  24.225  50.596
 8900W        W  824  37.217  33.697  50.155
 8901W        W  825  11.768  25.735  51.521
 8902W        W  826   6.290  39.729  50.612
 8903W        W  827   0.796  21.743  51.042
 8904W        W  828  18.240   1.253  51.056
 8905W        W  829  46.191  40.728  52.409
 8906W        W  830  13.730  34.716  51.983
 8907W        W  831  34.703  41.696  51.971
 8908W        W  832  26.216  26.742  53.330
 8909W        W  833  27.724   7.252  53.778
 8910W        W  834  21.225  25.743  50.622
 8911W        W  835   4.771  36.199  50.595
 8912W        W  836   4.280  38.236  52.900
 8913W        W  837   1.268  47.201  51.526
 8914W        W  838   9.760   7.767  50.156
 8915W        W  839  32.198  39.218  52.443
 8916W        W  840  23.261  13.237  50.161
 8917W        W  841  39.726  42.714  52.867
 8918W        W  842  20.221  27.712  53.332
 8919W        W  843  20.218  28.744  51.528
 8920W        W  844  33.717  11.761  50.586
 8921W        W  845   2.779  17.232  49.705
 8922W        W  846  22.746  26.736  52.860
 8923W        W  847  46.676  34.731  52.903
 8924W        W  848   8.275  11.763  51.954
 8925W        W  849  22.732  10.266  51.491
 8926W        W  850  11.765  45.686  49.676
 8927W        W  851  23.213  37.697  50.586
 8928W        W  852   3.293  12.237  52.883
 8929W        W  853  16.727  17.266  50.159
 8930W        W  854  28.728  24.729  52.414
 8931W        W  855   9.734   2.758  52.874
 8932W        W  856  31.714  38.223  50.615
 8933W        W  857  45.194  22.749  49.672
 8934W        W  858  29.228  36.210  51.073
 8935W        W  859  48.204   6.285  49.706
 8936W        W  860  21.759  14.274  51.517
 8937W        W  861  25.241  28.224  52.443
 8938W        W  862  46.717  24.752  53.797
 8939W        W  863  46.175  31.698  53.347
 8940W        W  864  31.241  37.197  53.782
 8941W        W  865  15.728  15.237  49.695
 8942W        W  866   5.279  22.746  49.705
 8943W        W  867   9.767  30.224  51.991
 8944W        W  868  47.688  16.739  51.062
 8945W        W  869  36.191  46.179  49.703
 8946W        W  870  43.696  10.257  49.678
 8947W        W  871  34.700  18.722  52.436
 8948W        W  872  21.264  14.735  50.610
 8949W        W  873  26.250  41.211  51.069
 8950W        W  874  19.755   4.246  51.491
 8951W        W  875  42.703  41.223  51.058
 8952W        W  876  28.718  16.750  52.883
 8953W        W  877  43.228  47.713  52.871
 8954W        W  878  27.242  31.232  51.051
 8955W        W  879   7.259   1.269  50.594
 8956W        W  880   1.250  28.743  50.612
 8957W        W  881  10.246   2.757  51.985
 8958W        W  882  10.253  19.753  53.814
 8959W        W  883  45.191   5.788  49.704
 8960W        W  884  31.702  33.719  51.979
 8961W        W  885   9.758  40.215  51.952
 8962W        W  886   2.762  11.262  49.676
 8963W        W  887  20.220   2.753  53.779
 8964W        W  888  19.267  30.231  52.405
 8965W        W  889  34.739  28.735  51.963
 8966W        W  890  39.691   3.770  50.160
 8967W        W  891   9.239  43.712  51.496
 8968W        W  892  35.725  21.755  51.060
 8969W        W  893   6.244  18.233  51.048
 8970W        W  894  34.741  10.253  52.410
 8971W        W  895  19.757  37.226  51.496
 8972W        W  896  28.734  32.245  51.070
 8973W        W  897   1.750  36.739  49.690
 8974W        W  898  16.263  14.263  50.124
 8975W        W  899  14.767  48.215  51.973
 8976W        W  900  25.214  10.751  51.516
 8977W        W  901   5.283  43.225  49.691
 8978W        W  902  41.186  13.766  53.784
 8979W        W  903  20.749   0.280  51.523
 8980W        W  904  28.208  15.742  50.609
 8981W        W  905  39.688  11.266  51.970
 8982W        W  906  40.687  15.737  49.704
 8983W        W  907  19.220  23.728  49.687
 8984W        W  908  44.191   8.745  52.902
 8985W        W  909   4.788   6.763  53.349
 8986W        W  910  11.270  29.726  51.510
 8987W        W  911   6.740   5.788  50.611
 8988W        W  912   4.276  35.701  50.143
 8989W        W  913  13.763  15.234  51.956
 8990W        W  914  42.201   1.792  50.138
 8991W        W  915   1.288  47.198  50.603
 8992W        W  916  46.209  29.727  53.817
 8993W        W  917  39.227  27.716  49.706
 8994W        W  918  29.723  34.241  51.521
 8995W        W  919  34.734  43.195  52.441
 8996W        W  920  10.271   9.239  50.599
 8997W        W  921  30.728   5.744  50.590
 8998W        W  922  27.231  48.215  52.439
 8999W        W  923  14.746  42.222  51.956
 9000W        W  924  30.245  34.224  51.988
 9001W        W  925  17.260  44.200  51.064
 9002W        W  926  46.213  26.242  50.161
 9003W        W  927  29.743  35.717  53.794
 9004W        W  928  34.230   0.264  52.881
 9005W        W  929  22.248   4.765  52.873
 9006W        W  930   9.281  15.752  52.430
 9007W        W  931  18.753   8.282  52.866
 9008W        W  932  22.256  20.220  51.051
 9009W        W  933  32.720   4.757  53.812
 9010W        W  934  10.779  24.256  51.979
 9011W        W  935  10.767  22.746  49.671
 9012W        W  936  29.225  29.739  53.337
 9013W        W  937  40.198  40.722  51.508
 9014W        W  938  31.733  27.734  53.353
 9015W        W  939  23.249  42.709  53.357
 9016W        W  940  12.755  22.252  51.502
 9017W        W  941  37.214   8.271  51.075
 9018W        W  942   8.760  17.756  50.129
 9019W        W  943  48.184  37.712  53.339
 9020W        W  944  16.250  14.247  49.698
 9021W        W  945  42.683  33.727  51.948
 9022W        W  946  38.704  19.736  51.968
 9023W        W  947  32.705  46.681  52.887
 9024W        W  948  10.242  15.732  50.150
 9025W        W  949   8.743   9.245  51.968
 9026W        W  950  16.739  47.706  52.894
 9027W        W  951  12.243   4.747  49.693
 9028W        W  952  43.705  29.727  53.780
 9029W        W  953  37.713  41.696  50.159
 9030W        W  954  29.737  12.271  53.340
 9031W        W  955   0.767   0.297  52.905
 9032W        W  956  43.183  25.231  52.408
 9033W        W  957  40.694  22.753  50.622
 9034W        W  958   9.244   8.753  53.338
 9035W        W  959   7.764  11.264  50.608
 9036W        W  960  18.762  21.743  49.669
 9037W        W  961  13.263   3.279  51.066
 9038W        W  962   5.749  20.231  52.888
 9039W        W  963  18.256  13.255  53.327
 9040W        W  964  26.249  15.761  50.608
 9041W        W  965  44.683  23.711  53.779
 9042W        W  966   5.288  16.748  50.598
 9043W        W  967  30.222   6.277  51.520
 9044W        W  968  23.248   6.779  50.136
 9045W        W  969  36.691  25.720  51.063
 9046W        W  970   4.758   0.291  53.327
 9047W        W  971  28.216  31.219  51.050
 9048W        W  972  12.273  21.255  51.977
 9049W        W  973  10.744  24.726  51.063
 9050W        W  974  10.770  27.741  53.810
 9051W        W  975  13.743  43.722  51.496
 9052W        W  976  11.735  25.209  52.898
 9053W        W  977  17.766  28.240  52.441
 9054W        W  978  22.727  24.752  50.599
 9055W        W  979   4.759   8.252  51.500
 9056W        W  980  47.715   5.765  50.151
 9057W        W  981  14.275  36.219  53.774
 9058W        W  982  48.207  18.222  49.689
 9059W        W  983  43.210   2.294  53.778
 9060W        W  984  29.712  10.256  53.338
 9061W        W  985  43.713   5.263  51.500
 9062W        W  986   4.786   5.246  52.874
 9063W        W  987  26.736  21.262  52.885
 9064W        W  988  12.762   0.268  49.674
 9065W        W  989   2.770  28.205  51.960
 9066W        W  990  27.243  32.211  52.439
 9067W        W  991  18.759  34.715  53.348
 9068W        W  992  20.724  27.750  51.066
 9069W        W  993  15.239   9.284  53.343
 9070W        W  994   9.276  24.244  50.622
 9071W        W  995  31.231  18.725  52.420
 9072W        W  996  14.269  10.281  53.355
 9073W        W  997  34.703  47.685  51.968
 9074W        W  998  23.737   0.782  50.578
 9075W        W  999   1.759   4.754  53.815
 9076W        W 1000  46.710  16.725  53.804
 9077W        W 1001  26.234  30.745  51.498
 9078W        W 1002   7.251  31.213  52.405
 9079W        W 1003  28.726  47.212  50.147
 9080W        W 1004  20.245   1.249  49.693
 9081W        W 1005   0.786  37.725  51.040
 9082W        W 1006  23.739  47.199  52.413
 9083W        W 1007  14.758   2.249  50.598
 9084W        W 1008   3.771  28.249  52.438
 9085W        W 1009  32.227  16.728  52.409
 9086W        W 1010  16.229  22.722  53.341
 9087W        W 1011  28.721   9.267  50.593
 9088W        W 1012  47.716  10.779  51.949
 9089W        W 1013  10.252  41.213  52.879
 9090W        W 1014  29.747  22.731  51.063
 9091W        W 1015  25.736  27.238  52.429
 9092W        W 1016  24.252  12.244  51.498
 9093W        W 1017  43.212  28.208  51.045
 9094W        W 1018  36.197   6.759  50.598
 9095W        W 1019  14.765  33.697  51.972
 9096W        W 1020  14.240  32.221  53.324
 9097W        W 1021  40.705   6.777  52.870
 9098W        W 1022  45.224   4.275  50.596
 9099W        W 1023   4.265  26.246  49.705
 9100W        W 1024  46.208  20.762  52.436
 9101W        W 1025  27.251   0.297  53.782
 9102W        W 1026  38.194  28.716  52.418
 9103W        W 1027  29.730  40.195  51.954
 9104W        W 1028   8.243  24.729  51.953
 9105W        W 1029  34.194  46.187  50.164
 9106W        W 1030  16.266   7.748  53.801
 9107W        W 1031  44.193  44.715  53.357
 9108W        W 1032   5.256  32.228  52.860
 9109W        W 1033  10.266  29.205  50.592
 9110W        W 1034  17.233  25.753  53.357
 9111W        W 1035   4.269  16.243  50.148
 9112W        W 1036   9.782  32.221  53.316
 9113W        W 1037   9.281  29.226  53.801
 9114W        W 1038  11.275  47.717  50.620
 9115W        W 1039   4.771  46.212  53.350
 9116W        W 1040   6.266  28.727  52.900
 9117W        W 1041  28.223  19.753  50.143
 9118W        W 1042  43.184  11.247  51.974
 9119W        W 1043   0.293  34.697  52.403
 9120W        W 1044   2.774  44.210  49.688
 9121W        W 1045  33.738  22.748  51.048
 9122W        W 1046  19.739  28.205  51.969
 9123W        W 1047  11.234  15.759  52.859
 9124W        W 1048  23.258  44.189  50.143
 9125W        W 1049  19.737  32.735  51.490
 9126W        W 1050  16.734  28.740  49.706
 9127W        W 1051  27.251  47.678  50.579
 9128W        W 1052   5.789   4.774  51.502
 9129W        W 1053   2.748  13.762  53.340
 9130W        W 1054  30.705  44.707  50.589
 9131W        W 1055  45.702  39.731  52.420
 9132W        W 1056  42.721  37.713  51.043
 9133W        W 1057   5.781   4.757  51.981
 9134W        W 1058  22.742  17.249  53.809
 9135W        W 1059  17.724  43.685  49.697
 9136W        W 1060   6.271  32.698  53.780
 9137W        W 1061  18.768  32.216  51.043
 9138W        W 1062  10.754  21.731  51.053
 9139W        W 1063  26.750   3.749  51.528
 9140W        W 1064  38.196  20.756  53.355
 9141W        W 1065  37.704  37.200  51.957
 9142W        W 1066   3.292  33.700  53.344
 9143W        W 1067  11.772  33.700  52.895
 9144W        W 1068   5.252  19.237  53.352
 9145W        W 1069  36.224   3.257  50.123
 9146W        W 1070   6.759  32.202  51.975
 9147W        W 1071  15.266  28.205  51.063
 9148W        W 1072  13.753  16.723  50.155
 9149W        W 1073  47.211  47.714  50.125
 9150W        W 1074   1.282   7.775  51.054
 9151W        W 1075  43.221  42.713  51.962
 9152W        W 1076  38.708   9.752  51.511
 9153W        W 1077  28.238  14.745  52.419
 9154W        W 1078  14.244  29.216  53.334
 9155W        W 1079  45.218   9.269  52.418
 9156W        W 1080  17.239  27.730  51.962
 9157W        W 1081  29.207  11.742  52.884
 9158W        W 1082  23.724  11.749  49.696
 9159W        W 1083  30.728  41.182  51.974
 9160W        W 1084   6.272  13.274  49.674
 9161W        W 1085  12.749  38.716  49.680
 9162W        W 1086   6.782  34.240  51.532
 9163W        W 1087  28.731  28.244  53.791
 9164W        W 1088  38.217  45.716  52.870
 9165W        W 1089  14.267  18.225  50.585
 9166W        W 1090  40.213  19.745  52.411
 9167W        W 1091  48.190  31.724  50.156
 9168W        W 1092  29.737  36.698  52.901
 9169W        W 1093   3.265   2.248  50.152
 9170W        W 1094  44.210  14.731  50.164
 9171W        W 1095  36.698   2.787  52.878
 9172W        W 1096   5.757  17.763  51.982
 9173W        W 1097   9.763  17.245  51.515
 9174W        W 1098   3.755  33.196  51.974
 9175W        W 1099  10.752  39.219  51.498
 9176W        W 1100  25.727  48.215  50.144
 9177W        W 1101   7.782  36.709  53.780
 9178W        W 1102  19.761  34.213  52.406
 9179W        W 1103  10.275  27.734  51.515
 9180W        W 1104  11.775   7.759  51.499
 9181W        W 1105   4.746   4.269  53.806
 9182W        W 1106  13.760  46.175  51.972
 9183W        W 1107  30.206  47.202  53.807
 9184W        W 1108   5.749  44.700  51.954
 9185W        W 1109  12.743  36.732  52.872
 9186W        W 1110  23.255  41.718  53.325
 9187W        W 1111  13.767  34.237  49.679
 9188W        W 1112  47.200  31.245  52.885
 9189W        W 1113   9.237   4.757  52.433
 9190W        W 1114  11.735   8.237  49.700
 9191W        W 1115   3.270  38.232  50.583
 9192W        W 1116  45.711  29.229  51.511
 9193W        W 1117  27.244  18.269  51.971
 9194W        W 1118  19.764  33.233  51.533
 9195W        W 1119  20.251   9.271  52.884
 9196W        W 1120  43.713  40.726  52.904
 9197W        W 1121  32.711   9.776  49.683
 9198W        W 1122   0.773  14.767  51.958
 9199W        W 1123  21.228  32.724  52.893
 9200W        W 1124  31.219  17.267  52.403
 9201W        W 1125   0.250   1.269  51.958
 9202W        W 1126  29.749  14.760  49.684
 9203W        W 1127  22.262  28.210  50.581
 9204W        W 1128  13.746  47.683  51.516
 9205W        W 1129  41.232  30.217  53.808
 9206W        W 1130  23.219   2.749  52.901
 9207W        W 1131  32.698   4.274  49.707
 9208W        W 1132  20.242  10.262  52.419
 9209W        W 1133  21.736  14.753  53.792
 9210W        W 1134  23.259  37.203  52.408
 9211W        W 1135  13.746  26.217  51.040
 9212W        W 1136  10.750  25.237  53.338
 9213W        W 1137  33.244  34.722  51.976
 9214W        W 1138  27.716  15.243  52.416
 9215W        W 1139   0.789  30.738  52.863
 9216W        W 1140   4.750  27.241  53.360
 9217W        W 1141  48.185  15.766  53.813
 9218W        W 1142  15.242  46.713  53.317
 9219W        W 1143  15.265  39.223  49.698
 9220W        W 1144  34.742  26.245  53.776
 9221W        W 1145   9.240  29.720  50.600
 9222W        W 1146  36.191  39.226  52.433
 9223W        W 1147  44.694   7.274  51.491
 9224W        W 1148  25.751  31.227  53.788
 9225W        W 1149   9.243  11.745  52.409
 9226W        W 1150   9.756   5.287  49.701
 9227W        W 1151  17.768  16.762  51.977
 9228W        W 1152  44.692  37.723  51.974
 9229W        W 1153  11.767  45.185  50.585
 9230W        W 1154  46.706  36.234  51.970
 9231W        W 1155  16.270  33.701  51.493
 9232W        W 1156  34.727  29.247  51.968
 9233W        W 1157  41.222  11.270  53.347
 9234W        W 1158  11.270  35.228  52.889
 9235W        W 1159   1.264   1.272  53.814
 9236W        W 1160  32.223  28.747  53.799
 9237W        W 1161  43.727  28.230  50.128
 9238W        W 1162  18.257  40.718  51.507
 9239W        W 1163  36.696  42.689  50.620
 9240W        W 1164  19.246  39.712  50.137
 9241W        W 1165  17.247   6.249  52.424
 9242W        W 1166   7.256  37.189  50.616
 9243W        W 1167  19.256  20.726  51.949
 9244W        W 1168  40.208  11.271  49.676
 9245W        W 1169  38.706  44.722  52.902
 9246W        W 1170   6.744  18.270  49.683
 9247W        W 1171  18.736   3.275  53.795
 9248W        W 1172  23.720  46.186  53.357
 9249W        W 1173  27.212  10.778  53.341
 9250W        W 1174  27.751  24.244  51.501
 9251W        W 1175  22.716  38.200  52.880
 9252W        W 1176  34.208  17.726  53.794
 9253W        W 1177  37.692   3.257  50.135
 9254W        W 1178  35.695  34.212  53.354
 9255W        W 1179  24.727  15.726  53.810
 9256W        W 1180  48.195   4.749  52.406
 9257W        W 1181  15.264  38.189  52.444
 9258W        W 1182  38.206  33.723  52.405
 9259W        W 1183   0.793  34.703  52.865
 9260W        W 1184  37.701  15.733  49.693
 9261W        W 1185  38.187  22.218  52.420
 9262W        W 1186   2.790  26.224  51.514
 9263W        W 1187  38.701  44.177  50.139
 9264W        W 1188  25.715  34.695  51.977
 9265W        W 1189  16.757  30.739  51.060
 9266W        W 1190  32.239  45.190  49.680
 9267W        W 1191  23.726  25.746  53.802
 9268W        W 1192  16.225  32.728  50.613
 9269W        W 1193  14.728  46.178  51.989
 9270W        W 1194  17.239  40.229  53.815
 9271W        W 1195  23.736   7.782  51.047
 9272W        W 1196  44.722  19.723  50.158
 9273W        W 1197  32.726  13.236  50.601
 9274W        W 1198  37.704  32.719  51.050
 9275W        W 1199   3.767  17.767  53.359
 9276W        W 1200  35.202  47.698  53.332
 9277W        W 1201  16.255   4.248  51.518
 9278W        W 1202  31.741  20.758  53.345
 9279W        W 1203  12.778  17.257  53.789
 9280W        W 1204  33.716  40.719  51.058
 9281W        W 1205  34.738   1.753  51.050
 9282W        W 1206  24.738  26.249  53.344
 9283W        W 1207  12.754  40.729  52.863
 9284W        W 1208  17.254  29.750  49.679
 9285W        W 1209  40.714  11.250  52.437
 9286W        W 1210  28.707  33.244  50.591
 9287W        W 1211   3.780  33.743  51.506
 9288W        W 1212  23.213  38.218  53.336
 9289W        W 1213  37.220  21.719  52.887
 9290W        W 1214  27.710  43.179  51.530
 9291W        W 1215  39.186  21.257  53.358
 9292W        W 1216  29.206  17.741  52.425
 9293W        W 1217  20.244  25.713  53.329
 9294W        W 1218  33.226  24.248  53.316
 9295W        W 1219   1.265   0.276  50.578
 9296W        W 1220  11.779  20.225  52.891
 9297W        W 1221   7.743  10.268  51.500
 9298W        W 1222  15.736  30.234  50.614
 9299W        W 1223   4.753  38.712  50.599
 9300W        W 1224  37.208  16.736  52.415
 9301W        W 1225  29.228  28.247  50.611
 9302W        W 1226  32.205  42.220  53.352
 9303W        W 1227  27.250  12.244  49.706
 9304W        W 1228   2.274  34.707  51.982
 9305W        W 1229  41.191  34.210  50.592
 9306W        W 1230  23.215  32.706  53.781
 9307W        W 1231   7.247  31.226  51.947
 9308W        W 1232  40.219  22.754  52.406
 9309W        W 1233  28.221  27.752  52.405
 9310W        W 1234  47.185  31.744  52.411
 9311W        W 1235  31.231  12.752  52.860
 9312W        W 1236  13.768  23.225  51.052
 9313W        W 1237  14.249  34.721  53.324
 9314W        W 1238  25.722  45.180  52.883
 9315W        W 1239  11.772  11.233  50.605
 9316W        W 1240  33.737  17.236  52.443
 9317W        W 1241  32.723   3.272  51.984
 9318W        W 1242  11.257   7.244  53.784
 9319W        W 1243   2.270   0.786  53.794
 9320W        W 1244   0.750  27.748  52.432
 9321W        W 1245  32.732  17.741  53.775
 9322W        W 1246  43.715  28.720  53.338
 9323W        W 1247  46.682  32.702  53.789
 9324W        W 1248  28.242  16.246  53.343
 9325W        W 1249   8.766  26.748  52.420
 9326W        W 1250  15.262  33.229  50.601
 9327W        W 1251  10.277  43.691  52.870
 9328W        W 1252  45.196  45.181  51.982
 9329W        W 1253  12.776   1.265  52.898
 9330W        W 1254  42.226   7.250  53.352
 9331W        W 1255  19.745  29.214  53.324
 9332W        W 1256  13.274  13.753  51.971
 9333W        W 1257  28.249  36.690  51.054
 9334W        W 1258  48.190  15.750  52.441
 9335W        W 1259  14.270  30.226  51.057
 9336W        W 1260   5.763  17.238  50.154
 9337W        W 1261   2.257  14.265  49.700
 9338W        W 1262   2.259  19.729  50.129
 9339W        W 1263   9.739  12.233  52.426
 9340W        W 1264  22.753  41.682  53.804
 9341W        W 1265   6.256  26.211  53.326
 9342W        W 1266   3.249  44.720  53.353
 9343W        W 1267  47.219   7.239  53.787
 9344W        W 1268  44.688  15.228  52.882
 9345W        W 1269  48.200  33.716  50.162
 9346W        W 1270  47.678  29.212  51.074
 9347W        W 1271  17.227  31.718  53.327
 9348W        W 1272  30.206   5.782  53.348
 9349W        W 1273  17.262  38.699  49.694
 9350W        W 1274  16.266  24.240  50.159
 9351W        W 1275   9.777  34.709  52.875
 9352W        W 1276   8.284  41.722  50.152
 9353W        W 1277  10.273  24.714  52.406
 9354W        W 1278  20.756  30.704  53.780
 9355W        W 1279  10.245  39.713  50.131
 9356W        W 1280  31.746  26.230  52.422
 9357W        W 1281  44.219  38.704  51.490
 9358W        W 1282  14.243  22.219  53.793
 9359W        W 1283  10.778  18.725  49.680
 9360W        W 1284  42.698   2.251  51.975
 9361W        W 1285  43.706   1.793  50.124
 9362W        W 1286   0.279  17.229  52.878
 9363W        W 1287  27.218  32.239  49.676
 9364W        W 1288  19.728   3.248  52.883
 9365W        W 1289  22.729  31.720  49.678
 9366W        W 1290  41.713  36.712  50.165
 9367W        W 1291  45.204  16.742  53.797
 9368W        W 1292  16.244   4.287  50.586
 9369W        W 1293  39.727   5.761  52.891
 9370W        W 1294  26.727  24.251  51.976
 9371W        W 1295  38.720  32.726  52.440
 9372W        W 1296  44.198   5.775  53.319
 9373W        W 1297  27.714  24.223  50.613
 9374W        W 1298  33.716   1.773  50.604
 9375W        W 1299   0.261  18.762  51.964
 9376W        W 1300   7.741  11.258  53.798
 9377W        W 1301  21.761  46.710  50.601
 9378W        W 1302  22.218  20.743  49.703
 9379W        W 1303  34.221   7.747  53.343
 9380W        W 1304  38.209  44.707  51.036
 9381W        W 1305  46.702  14.261  51.534
 9382W        W 1306  43.193  28.733  51.948
 9383W        W 1307  16.727  30.746  51.534
 9384W        W 1308  27.725  23.225  53.339
 9385W        W 1309  27.740  43.686  52.420
 9386W        W 1310  17.253  12.275  53.806
 9387W        W 1311  43.699  27.210  51.530
 9388W        W 1312   6.251  21.752  50.608
 9389W        W 1313  39.690  10.737  51.521
 9390W        W 1314  33.703  19.259  52.901
 9391W        W 1315  25.228  39.722  50.621
 9392W        W 1316  47.677  20.737  51.063
 9393W        W 1317   6.781  33.202  49.709
 9394W        W 1318  31.211  45.710  51.946
 9395W        W 1319  18.744   5.263  51.520
 9396W        W 1320  15.764  16.737  50.148
 9397W        W 1321  28.210  42.726  52.446
 9398W        W 1322  15.737   3.780  51.953
 9399W        W 1323  22.252  29.734  52.868
 9400W        W 1324  11.264  14.775  51.985
 9401W        W 1325  12.737   2.773  53.776
 9402W        W 1326  24.247   9.736  50.159
 9403W        W 1327  35.724   6.261  51.491
 9404W        W 1328  25.232   3.288  51.506
 9405W        W 1329  12.735  31.241  49.705
 9406W        W 1330  31.216  24.755  51.949
 9407W        W 1331  28.721  34.225  51.054
 9408W        W 1332  11.734  45.719  50.590
 9409W        W 1333   4.784  34.728  50.603
 9410W        W 1334   7.282  15.746  52.895
 9411W        W 1335  34.201  16.250  53.318
 9412W        W 1336   0.279  10.761  51.043
 9413W        W 1337  20.244  36.238  50.161
 9414W        W 1338   1.791   6.250  50.159
 9415W        W 1339  12.737  10.755  51.059
 9416W        W 1340  37.216  22.221  52.872
 9417W        W 1341  17.728   0.274  51.960
 9418W        W 1342  24.733  23.744  52.423
 9419W        W 1343  45.191  10.757  52.896
 9420W        W 1344  40.710   7.239  52.440
 9421W        W 1345  45.203  27.723  53.800
 9422W        W 1346  14.266  43.216  53.340
 9423W        W 1347  40.713  43.683  51.068
 9424W        W 1348   7.257  19.231  52.403
 9425W        W 1349  27.211  14.249  52.417
 9426W        W 1350  31.225  17.250  50.161
 9427W        W 1351  18.745  18.243  50.588
 9428W        W 1352  12.241  35.722  52.882
 9429W        W 1353  18.744  27.714  53.785
 9430W        W 1354   1.765   6.265  51.511
 9431W        W 1355  32.701   4.756  50.604
 9432W        W 1356  21.225  34.704  49.708
 9433W        W 1357  29.240  22.252  52.407
 9434W        W 1358  42.200  19.747  52.874
 9435W        W 1359  10.745  11.751  51.518
 9436W        W 1360   8.750  39.708  50.621
 9437W        W 1361   3.783  11.766  50.590
 9438W        W 1362  31.707  14.752  49.667
 9439W        W 1363  39.206  36.206  50.602
 9440W        W 1364  40.690   1.268  53.792
 9441W        W 1365   7.269  39.730  50.605
 9442W        W 1366  23.219   4.285  50.151
 9443W        W 1367  31.237  14.254  51.967
 9444W        W 1368  45.177  44.707  52.405
 9445W        W 1369  28.232  47.699  50.611
 9446W        W 1370  26.227  24.245  53.775
 9447W        W 1371  45.201  27.253  51.991
 9448W        W 1372   4.775  25.209  50.130
 9449W        W 1373  47.194  45.200  52.421
 9450W        W 1374   2.747   2.294  51.952
 9451W        W 1375  15.246   3.783  51.516
 9452W        W 1376  17.733  21.227  52.867
 9453W        W 1377  37.232  28.744  52.446
 9454W        W 1378  10.762  14.230  51.499
 9455W        W 1379   7.742  39.721  52.868
 9456W        W 1380  30.709  30.236  50.121
 9457W        W 1381  19.266  45.220  53.358
 9458W        W 1382  35.725  43.719  49.691
 9459W        W 1383  41.727  28.239  50.165
 9460W        W 1384  26.229  32.715  53.350
 9461W        W 1385  18.729  37.192  49.683
 9462W        W 1386  29.719  48.187  51.045
 9463W        W 1387  48.196   8.246  51.069
 9464W        W 1388  32.726  46.716  53.799
 9465W        W 1389  27.250   0.251  53.356
 9466W        W 1390  25.711  21.734  51.065
 9467W        W 1391  34.732  34.208  51.535
 9468W        W 1392   3.272  34.696  51.985
 9469W        W 1393  26.746   3.745  50.620
 9470W        W 1394  18.231  35.716  51.043
 9471W        W 1395  17.227  15.740  53.773
 9472W        W 1396  36.203  33.715  51.495
 9473W        W 1397  44.688  35.719  52.419
 9474W        W 1398  39.696  42.702  51.500
 9475W        W 1399   8.737  27.208  50.590
 9476W        W 1400  27.735  27.739  52.887
 9477W        W 1401   0.272  20.730  52.410
 9478W        W 1402  26.233  41.215  50.150
 9479W        W 1403  34.732  45.702  52.404
 9480W        W 1404  12.766  13.240  50.161
 9481W        W 1405  22.735  35.739  49.697
 9482W        W 1406  45.694  41.198  53.342
 9483W        W 1407  37.211  25.747  51.959
 9484W        W 1408  41.697  45.188  51.983
 9485W        W 1409  46.189  24.256  53.344
 9486W        W 1410  31.725  12.759  50.146
 9487W        W 1411  35.221  35.229  50.604
 9488W        W 1412  44.716  12.270  51.510
 9489W        W 1413   7.750  16.742  53.798
 9490W        W 1414  20.258  21.216  52.902
 9491W        W 1415  24.244  29.704  50.621
 9492W        W 1416  16.243   4.279  50.127
 9493W        W 1417  34.228  24.219  50.618
 9494W        W 1418   8.261  12.776  50.124
 9495W        W 1419  27.226  10.735  52.869
 9496W        W 1420  41.222  13.236  50.151
 9497W        W 1421  23.226   2.268  53.784
 9498W        W 1422  45.692  31.221  53.344
 9499W        W 1423  38.194  18.730  50.122
 9500W        W 1424   8.256  25.246  49.706
 9501W        W 1425  18.722  46.694  51.050
 9502W        W 1426   1.296  34.204  52.864
 9503W        W 1427  29.715  15.766  51.523
 9504W        W 1428  45.182  38.209  50.589
 9505W        W 1429   7.742  43.211  51.535
 9506W        W 1430  21.727  44.215  51.521
 9507W        W 1431   5.763  29.734  51.954
 9508W        W 1432   6.287  43.204  51.499
 9509W        W 1433  21.762  17.244  50.621
 9510W        W 1434   7.740  36.734  51.979
 9511W        W 1435  15.767  46.681  51.989
 9512W        W 1436  32.198  38.234  51.979
 9513W        W 1437  35.719   8.767  53.332
 9514W        W 1438   4.270   3.251  49.705
 9515W        W 1439   0.787  48.188  50.589
 9516W        W 1440  10.255   6.266  51.525
 9517W        W 1441   0.266   8.768  51.495
 9518W        W 1442  31.737  37.710  51.975
 9519W        W 1443  46.208  25.723  52.436
 9520W        W 1444  38.715  10.746  51.984
 9521W        W 1445   9.755  35.203  52.869
 9522W        W 1446  23.239  36.701  49.704
 9523W        W 1447  11.767  43.215  50.582
 9524W        W 1448  40.190  16.751  50.145
 9525W        W 1449  38.193  39.228  51.506
 9526W        W 1450  24.730  46.204  50.588
 9527W        W 1451  23.717  10.737  50.121
 9528W        W 1452  38.724  21.262  51.525
 9529W        W 1453   0.771  13.246  51.073
 9530W        W 1454   6.756  23.220  53.800
 9531W        W 1455  18.746  22.748  49.696
 9532W        W 1456  37.214  22.247  50.164
 9533W        W 1457   0.260   6.759  49.709
 9534W        W 1458   4.258  36.194  50.129
 9535W        W 1459  28.739   4.758  51.047
 9536W        W 1460  32.228  15.236  52.864
 9537W        W 1461  34.721   0.292  53.784
 9538W        W 1462  23.241  36.203  52.899
 9539W        W 1463  25.233  11.742  50.157
 9540W        W 1464  14.759  16.246  52.414
 9541W        W 1465  34.203   4.256  53.800
 9542W        W 1466  26.726   7.752  52.897
 9543W        W 1467   7.751  19.755  49.689
 9544W        W 1468  17.721  36.695  51.989
 9545W        W 1469   7.738   9.764  50.606
 9546W        W 1470  31.732  41.202  50.595
 9547W        W 1471  43.693  22.225  50.163
 9548W        W 1472   2.789  10.252  50.144
 9549W        W 1473  31.698  33.723  49.693
 9550W        W 1474  44.718  25.241  52.880
 9551W        W 1475  27.207  38.727  51.075
 9552W        W 1476  36.726  25.736  50.587
 9553W        W 1477  19.750  18.223  51.988
 9554W        W 1478   2.282  24.752  53.787
 9555W        W 1479  10.742   4.253  51.986
 9556W        W 1480  45.180   3.260  51.959
 9557W        W 1481   5.262  44.694  51.987
 9558W        W 1482  24.743  48.218  50.614
 9559W        W 1483   4.244  25.744  51.526
 9560W        W 1484  30.203  28.212  52.441
 9561W        W 1485  28.240  24.239  49.698
 9562W        W 1486  14.770  18.721  51.497
 9563W        W 1487  35.230  42.694  50.603
 9564W        W 1488   2.776   3.771  53.345
 9565W        W 1489  18.238  28.235  53.794
 9566W        W 1490  38.724  42.216  51.530
 9567W        W 1491  26.211  21.242  51.075
 9568W        W 1492  47.679   0.756  50.607
 9569W        W 1493  17.731  15.747  50.154
 9570W        W 1494  35.230  29.745  52.861
 9571W        W 1495  15.736  46.710  50.121
 9572W        W 1496  12.233   5.748  51.505
 9573W        W 1497  31.713  30.219  50.157
 9574W        W 1498  25.234  34.225  51.060
 9575W        W 1499  32.217  24.711  53.806
 9576W        W 1500  32.241  33.726  49.708
 9577W        W 1501  24.258  27.731  52.448
 9578W        W 1502   3.256  41.220  49.704
 9579W        W 1503  44.695  44.225  51.982
 9580W        W 1504  10.269  20.723  49.699
 9581W        W 1505  22.235  48.186  53.814
 9582W        W 1506  22.240  37.225  50.605
 9583W        W 1507   3.247  42.729  51.963
 9584W        W 1508  30.236  13.737  50.143
 9585W        W 1509  11.757  14.259  50.131
 9586W        W 1510  48.203  45.205  53.802
 9587W        W 1511  17.255  31.733  51.974
 9588W        W 1512   4.249  20.254  52.446
 9589W        W 1513   6.258  11.263  50.601
 9590W        W 1514  21.253  23.729  51.508
 9591W        W 1515  24.232  36.694  51.075
 9592W        W 1516  45.692  12.279  51.955
 9593W        W 1517  46.222  20.735  51.963
 9594W        W 1518   7.264  42.681  52.412
 9595W        W 1519  24.712  30.226  51.950
 9596W        W 1520  45.215  16.724  49.669
 9597W        W 1521  47.712  36.208  53.784
 9598W        W 1522  36.196  32.723  49.701
 9599W        W 1523  12.275  43.203  51.957
 9600W        W 1524   5.274  20.261  52.881
 9601W        W 1525  17.222  20.218  49.667
 9602W        W 1526  14.264  12.732  51.036
 9603W        W 1527  42.210  24.758  53.336
 9604W        W 1528  34.705   1.765  51.523
 9605W        W 1529  39.732   7.760  51.506
 9606W        W 1530  25.740  35.231  53.356
 9607W        W 1531  19.224   7.755  51.492
 9608W        W 1532  16.770  39.211  53.333
 9609W        W 1533  13.742   2.254  52.867
 9610W        W 1534  18.721  20.716  52.865
 9611W        W 1535   0.250   9.269  51.497
 9612W        W 1536   2.782  10.246  53.351
 9613W        W 1537  15.252   3.286  53.807
 9614W        W 1538   2.266   0.758  50.619
 9615W        W 1539  26.740  13.758  51.960
 9616W        W 1540   6.754  30.712  51.044
 9617W        W 1541   0.269  43.710  52.879
 9618W        W 1542  42.183  11.255  53.337
 9619W        W 1543  22.224  27.747  52.875
 9620W        W 1544  41.720  40.218  50.125
 9621W        W 1545  34.234  42.713  49.667
 9622W        W 1546  38.722   5.760  52.442
 9623W        W 1547  25.740  12.260  50.582
 9624W        W 1548  14.268   9.282  51.974
 9625W        W 1549  46.686  13.764  50.601
 9626W        W 1550  24.742   7.783  49.676
 9627W        W 1551  25.722   8.236  51.509
 9628W        W 1552  25.721  46.218  49.677
 9629W        W 1553  43.221  38.697  51.502
 9630W        W 1554  31.724   6.256  49.682
 9631W        W 1555  20.758  41.204  51.527
 9632W        W 1556  24.736  14.266  52.444
 9633W        W 1557   4.778  31.699  53.794
 9634W        W 1558  45.177  11.749  52.900
 9635W        W 1559  21.750   8.280  52.444
 9636W        W 1560  26.741  13.248  52.432
 9637W        W 1561  12.733  48.172  50.133
 9638W        W 1562  46.200  24.240  49.665
 9639W        W 1563   3.769   6.285  51.060
 9640W        W 1564  18.731  25.751  51.967
 9641W        W 1565   0.781  40.215  50.141
 9642W        W 1566   4.254  18.734  50.154
 9643W        W 1567  32.208  30.210  53.316
 9644W        W 1568  41.209   2.760  51.076
 9645W        W 1569  37.203  23.713  52.435
 9646W        W 1570  45.187  40.218  52.435
 9647W        W 1571  39.703  15.764  49.699
 9648W        W 1572   1.291  31.227  52.887
 9649W        W 1573  10.272  32.229  51.078
 9650W        W 1574  14.227  27.740  53.317
 9651W        W 1575   7.270  15.236  49.684
 9652W        W 1576  29.718  20.765  49.670
 9653W        W 1577  11.239   7.782  50.593
 9654W        W 1578  27.705  12.270  52.415
 9655W        W 1579   5.268  29.724  52.868
 9656W        W 1580  46.707  18.767  52.434
 9657W        W 1581  29.218  41.230  49.695
 9658W        W 1582   4.271  14.766  51.048
 9659W        W 1583  12.742  32.740  51.955
 9660W        W 1584  47.200  38.733  52.860
 9661W        W 1585  26.740  38.722  50.126
 9662W        W 1586  46.180  34.719  53.782
 9663W        W 1587   6.262  31.727  53.813
 9664W        W 1588   8.250  33.232  52.414
 9665W        W 1589  28.708  34.725  51.959
 9666W        W 1590   9.236  34.715  52.860
 9667W        W 1591  38.191  12.742  51.976
 9668W        W 1592  44.686  17.763  52.439
 9669W        W 1593   1.263   5.779  50.156
 9670W        W 1594  39.692  14.735  50.578
 9671W        W 1595  36.719  38.222  52.417
 9672W        W 1596  44.721  20.218  51.947
 9673W        W 1597  14.265  32.204  49.703
 9674W        W 1598  33.241   4.275  51.064
 9675W        W 1599  39.733   1.788  51.050
 9676W        W 1600  47.688  42.706  50.121
 9677W        W 1601  38.210   8.242  51.987
 9678W        W 1602   2.786  45.720  50.129
 9679W        W 1603  22.751  10.258  53.352
 9680W        W 1604  47.679   6.740  51.959
 9681W        W 1605  20.255  29.239  50.159
 9682W        W 1606   0.264  29.705  52.877
 9683W        W 1607  34.234  38.224  51.068
 9684W        W 1608   5.256  36.705  50.604
 9685W        W 1609  45.701  29.214  50.584
 9686W        W 1610   3.252   4.753  51.036
 9687W        W 1611  24.239  46.714  51.980
 9688W        W 1612   1.271  48.182  50.130
 9689W        W 1613   8.259  15.759  51.036
 9690W        W 1614  23.234  25.726  49.706
 9691W        W 1615  22.741  46.716  53.325
 9692W        W 1616  42.196   1.785  53.347
 9693W        W 1617  39.223  40.696  51.498
 9694W        W 1618   4.292  47.196  49.671
 9695W        W 1619   0.251  14.237  53.347
 9696W        W 1620  30.207  36.714  51.527
 9697W        W 1621  19.254   4.744  51.952
 9698W        W 1622  25.724  11.257  51.512
 9699W        W 1623   1.779  35.201  49.691
 9700W        W 1624  45.722  16.767  50.133
 9701W        W 1625  15.230  26.227  52.440
 9702W        W 1626   8.748  20.220  53.323
 9703W        W 1627  15.254  37.721  51.070
 9704W        W 1628  26.708  14.246  53.351
 9705W        W 1629  23.751   0.281  53.349
 9706W        W 1630  21.738  36.712  52.424
 9707W        W 1631  24.256  12.741  52.434
 9708W        W 1632  42.727  17.761  53.341
 9709W        W 1633   5.748  16.733  51.534
 9710W        W 1634  28.734  21.217  50.596
 9711W        W 1635  38.203  24.754  52.422
 9712W        W 1636  46.200  13.276  52.861
 9713W        W 1637   6.772  31.231  53.784
 9714W        W 1638  42.182  38.700  50.596
 9715W        W 1639  46.189  12.256  52.871
 9716W        W 1640   3.264  25.710  51.506
 9717W        W 1641  41.211   5.742  50.166
 9718W        W 1642  13.750  14.774  51.514
 9719W        W 1643  44.681  27.235  51.500
 9720W        W 1644  33.721   4.789  51.065
 9721W        W 1645  42.689  45.714  49.695
 9722W        W 1646  30.712  39.685  53.797
 9723W        W 1647   8.283   7.785  52.427
 9724W        W 1648   8.743  10.743  51.969
 9725W        W 1649  43.711  38.194  51.953
 9726W        W 1650  16.753  26.753  52.409
 9727W        W 1651  33.211  39.207  49.703
 9728W        W 1652   6.787  33.230  50.163
 9729W        W 1653  28.213  39.718  51.517
 9730W        W 1654  48.198  43.200  52.437
 9731W        W 1655   8.771  12.731  51.956
 9732W        W 1656  42.225   4.290  49.706
 9733W        W 1657  28.251   0.786  51.524
 9734W        W 1658  32.229  32.233  53.320
 9735W        W 1659  14.756   3.745  50.622
 9736W        W 1660  27.749  11.249  53.805
 9737W        W 1661  40.726  10.267  51.530
 9738W        W 1662  38.205  20.722  53.784
 9739W        W 1663  23.248  31.245  50.147
 9740W        W 1664  29.215  10.264  53.324
 9741W        W 1665  38.725  47.219  49.690
 9742W        W 1666  45.191  42.218  51.973
 9743W        W 1667  30.230  43.211  51.052
 9744W        W 1668  21.740  32.744  50.144
 9745W        W 1669  39.702  10.771  49.666
 9746W        W 1670  20.762  41.226  50.621
 9747W        W 1671  30.238  11.735  52.404
 9748W        W 1672  23.230  19.240  53.333
 9749W        W 1673  41.690  46.675  50.604
 9750W        W 1674  45.203  15.228  51.956
 9751W        W 1675  43.710  10.246  53.356
 9752W        W 1676  18.748  17.246  53.808
 9753W        W 1677  20.726  11.761  52.871
 9754W        W 1678  24.240  21.762  49.674
 9755W        W 1679  28.708  15.737  52.880
 9756W        W 1680  14.239  26.732  50.597
 9757W        W 1681  35.736  23.725  49.689
 9758W        W 1682  16.234  39.733  49.709
 9759W        W 1683  20.224  46.221  51.496
 9760W        W 1684   8.237  35.216  50.124
 9761W        W 1685  34.733  39.730  53.783
 9762W        W 1686   0.770  16.743  53.328
 9763W        W 1687  11.755  46.712  51.513
 9764W        W 1688  22.752  18.767  52.877
 9765W        W 1689  44.195   9.769  53.343
 9766W        W 1690   9.774   7.768  53.326
 9767W        W 1691  45.681  18.729  50.129
 9768W        W 1692  35.234  13.263  52.871
 9769W        W 1693  29.717   8.747  51.531
 9770W        W 1694   4.750   7.766  50.606
 9771W        W 1695  38.203  13.743  52.422
 9772W        W 1696  33.245  33.710  52.443
 9773W        W 1697   7.269  31.719  53.811
 9774W        W 1698   4.251  33.733  53.351
 9775W        W 1699   0.279   4.256  51.962
 9776W        W 1700  33.201  32.238  51.054
 9777W        W 1701  26.714  48.197  53.352
 9778W        W 1702  40.211  16.767  52.873
 9779W        W 1703   6.755  24.225  49.683
 9780W        W 1704  36.724   1.749  49.671
 9781W        W 1705  20.721  17.763  53.789
 9782W        W 1706   4.750  21.737  50.164
 9783W        W 1707  29.237  42.188  51.061
 9784W        W 1708  37.737  41.715  52.412
 9785W        W 1709  30.710  38.718  51.532
 9786W        W 1710  16.746  13.242  52.446
 9787W        W 1711   6.286  25.750  51.963
 9788W        W 1712  21.746  46.209  52.895
 9789W        W 1713  19.740  26.216  53.319
 9790W        W 1714   9.273  43.195  51.509
 9791W        W 1715  47.190  14.257  51.059
 9792W        W 1716  31.719  23.213  51.988
 9793W        W 1717   1.760  30.201  51.991
 9794W        W 1718  19.721  13.248  49.676
 9795W        W 1719  32.746  32.207  51.492
 9796W        W 1720  38.233  40.702  52.889
 9797W        W 1721   5.260  25.739  51.042
 9798W        W 1722  28.252  25.740  53.320
 9799W        W 1723  15.748  20.242  51.496
 9800W        W 1724  12.247  43.195  52.871
 9801W        W 1725  40.202  32.707  53.814
 9802W        W 1726  25.740   3.258  50.591
 9803W        W 1727  16.266  16.725  52.408
 9804W        W 1728  35.724  47.221  51.035
 9805W        W 1729  17.724  47.191  50.603
 9806W        W 1730  38.190  26.256  50.129
 9807W        W 1731   5.790  43.228  53.810
 9808W        W 1732  39.700  38.220  51.078
 9809W        W 1733  36.215   5.766  51.534
 9810W        W 1734  33.230  16.740  51.036
 9811W        W 1735  46.218  12.746  51.987
 9812W        W 1736  21.734  42.713  52.423
 9813W        W 1737  32.233   5.785  50.151
 9814W        W 1738  35.701  15.229  50.581
 9815W        W 1739  22.748  24.739  53.327
 9816W        W 1740   6.272  30.749  52.881
 9817W        W 1741  23.229  24.713  52.875
 9818W        W 1742  22.254  18.236  50.604
 9819W        W 1743  43.181  44.211  51.063
 9820W        W 1744   7.280  22.751  49.710
 9821W        W 1745  29.237  43.696  51.065
 9822W        W 1746   2.284  45.220  51.967
 9823W        W 1747  16.257   8.256  49.671
 9824W        W 1748  15.237  29.719  52.880
 9825W        W 1749   0.765  48.180  51.970
 9826W        W 1750  20.228  11.276  50.162
 9827W        W 1751  36.706  28.706  53.316
 9828W        W 1752  20.240  46.714  52.889
 9829W        W 1753  20.762  48.190  50.602
 9830W        W 1754   0.787  11.755  53.811
 9831W        W 1755   5.761  12.744  53.341
 9832W        W 1756  48.195  10.260  50.594
 9833W        W 1757   0.297  37.213  52.438
 9834W        W 1758  44.714  33.741  53.810
 9835W        W 1759   2.288   3.275  52.859
 9836W        W 1760  15.270  20.742  52.876
 9837W        W 1761  22.717  39.234  53.354
 9838W        W 1762  42.708  10.268  51.491
 9839W        W 1763  20.751  43.681  51.984
 9840W        W 1764  45.200  39.704  52.891
 9841W        W 1765  32.741  39.219  51.535
 9842W        W 1766  37.733  36.191  49.697
 9843W        W 1767  42.190  33.722  50.161
 9844W        W 1768   5.257  41.708  50.579
 9845W        W 1769  23.215  40.688  51.067
 9846W        W 1770  47.703  42.713  51.491
 9847W        W 1771   3.248  36.735  52.898
 9848W        W 1772   1.789  14.230  52.405
 9849W        W 1773  23.743  19.740  52.430
 9850W        W 1774   1.281   3.772  50.164
 9851W        W 1775  17.724  20.252  49.697
 9852W        W 1776  30.701  29.710  50.150
 9853W        W 1777  47.218  33.232  50.620
 9854W        W 1778  11.754  23.753  49.708
 9855W        W 1779  31.247  35.726  50.606
 9856W        W 1780  45.194   0.261  53.789
 9857W        W 1781  25.249  11.264  50.608
 9858W        W 1782  37.712   4.288  52.878
 9859W        W 1783  18.723  41.217  51.038
 9860W        W 1784  16.265   5.271  52.886
 9861W        W 1785  47.674  16.230  52.438
 9862W        W 1786  14.747  32.703  53.351
 9863W        W 1787  34.217  18.733  52.424
 9864W        W 1788  18.267  45.179  52.860
 9865W        W 1789  15.230  36.692  49.682
 9866W        W 1790  18.722   2.261  51.077
 9867W        W 1791  26.740  27.713  50.586
 9868W        W 1792  16.238  37.234  50.610
 9869W        W 1793  17.234   0.253  52.901
 9870W        W 1794  36.217  41.692  50.165
 9871W        W 1795  17.232  30.729  52.447
 9872W        W 1796  24.234  45.196  53.800
 9873W        W 1797  38.215  10.733  53.791
 9874W        W 1798  20.729  16.273  51.071
 9875W        W 1799  13.748  21.250  51.058
 9876W        W 1800  40.232  30.733  52.892
 9877W        W 1801  27.229   9.266  50.613
 9878W        W 1802   1.265  28.712  52.860
 9879W        W 1803  12.247   1.270  51.044
 9880W        W 1804  32.715  24.233  53.807
 9881W        W 1805  28.731  24.738  53.331
 9882W        W 1806  43.226  25.227  51.977
 9883W        W 1807   2.292   4.281  52.446
 9884W        W 1808   6.776  25.237  51.971
 9885W        W 1809  15.250  19.262  53.803
 9886W        W 1810  16.729  44.711  51.495
 9887W        W 1811  44.193  20.720  52.445
 9888W        W 1812  12.233  14.752  52.446
 9889W        W 1813  43.216  48.204  50.129
 9890W        W 1814   0.793  13.261  51.502
 9891W        W 1815   3.293  13.247  50.165
 9892W        W 1816  28.726   3.768  51.512
 9893W        W 1817  20.759  20.263  51.064
 9894W        W 1818  25.247  48.210  53.350
 9895W        W 1819   5.757  35.705  49.676
 9896W        W 1820  24.743   1.269  49.670
 9897W        W 1821  15.761  12.750  51.949
 9898W        W 1822   6.770  33.731  51.968
 9899W        W 1823  43.210  18.723  52.865
 9900W        W 1824  16.240  21.721  51.053
 9901W        W 1825  29.742  46.704  53.348
 9902W        W 1826  38.237  44.698  52.875
 9903W        W 1827  20.728  12.243  51.981
 9904W        W 1828  33.737   7.255  50.139
 9905W        W 1829  24.748   8.757  51.964
 9906W        W 1830  21.715  38.730  51.064
 9907W        W 1831   1.295  19.220  53.317
 9908W        W 1832  31.699  43.227  51.956
 9909W        W 1833   4.282  19.235  50.163
 9910W        W 1834  48.212   5.276  50.154
 9911W        W 1835   8.262  30.710  51.977
 9912W        W 1836   8.764  42.180  53.790
 9913W        W 1837  11.252  24.754  51.960
 9914W        W 1838  45.189  24.220  52.419
 9915W        W 1839   9.274  17.249  51.518
 9916W        W 1840   0.773  27.245  51.069
 9917W        W 1841  22.729  11.234  50.149
 9918W        W 1842   9.749  33.714  52.894
 9919W        W 1843  41.713  19.742  52.875
 9920W        W 1844   6.264  27.743  50.166
 9921W        W 1845  42.687  23.754  50.127
 9922W        W 1846   6.286  13.767  52.864
 9923W        W 1847  31.242  34.207  52.895
 9924W        W 1848   0.268  16.725  50.599
 9925W        W 1849   1.782  45.193  52.899
 9926W        W 1850  47.193  33.195  53.790
 9927W        W 1851  34.733  13.773  53.814
 9928W        W 1852  22.238  32.206  51.051
 9929W        W 1853  24.756   3.756  52.893
 9930W        W 1854  23.737  16.725  53.329
 9931W        W 1855  42.728  10.275  51.050
 9932W        W 1856   0.277  34.739  52.902
 9933W        W 1857  21.731  24.741  52.870
 9934W        W 1858  25.739  41.187  53.354
 9935W        W 1859  29.721  44.705  52.443
 9936W        W 1860  43.223   3.748  51.526
 9937W        W 1861  14.254  38.201  49.665
 9938W        W 1862  14.771  39.729  51.950
 9939W        W 1863   6.261  28.217  50.141
 9940W        W 1864  36.729  23.254  53.802
 9941W        W 1865  42.229  18.264  52.413
 9942W        W 1866  45.187  23.222  50.135
 9943W        W 1867   7.281  46.722  53.816
 9944W        W 1868   7.255  32.726  51.062
 9945W        W 1869  39.710   5.269  53.790
 9946W        W 1870  36.701   7.275  50.578
 9947W        W 1871  22.261  32.226  52.860
 9948W        W 1872  35.703  42.196  49.679
 9949W        W 1873  21.736  47.186  52.405
 9950W        W 1874   4.751  44.692  51.509
 9951W        W 1875  16.239   5.254  51.506
 9952W        W 1876  18.764   1.752  52.413
 9953W        W 1877  16.745  12.748  51.973
 9954W        W 1878  23.233  17.744  51.051
 9955W        W 1879  33.726  42.188  49.673
 9956W        W 1880  46.197  47.690  52.414
 9957W        W 1881  25.232  38.691  51.517
 9958W        W 1882  45.682  29.701  51.504
 9959W        W 1883  20.741  22.729  49.694
 9960W        W 1884   4.258   2.752  50.599
 9961W        W 1885  44.693  29.210  50.133
 9962W        W 1886  47.195  38.192  52.904
 9963W        W 1887  11.772  13.771  52.884
 9964W        W 1888   8.242  32.202  52.884
 9965W        W 1889  24.714  20.765  49.670
 9966W        W 1890  47.685  16.268  50.594
 9967W        W 1891  16.269  27.222  51.035
 9968W        W 1892  12.250  19.246  53.320
 9969W        W 1893  34.198  25.748  50.618
 9970W        W 1894  26.234  23.754  50.129
 9971W        W 1895  33.239  47.205  50.585
 9972W        W 1896   6.259  20.246  50.163
 9973W        W 1897  38.718  35.215  53.817
 9974W        W 1898   1.283  21.742  53.808
 9975W        W 1899  31.713  40.692  50.139
 9976W        W 1900  19.240  19.257  53.324
 9977W        W 1901  39.721  38.735  52.900
 9978W        W 1902   2.778  45.181  51.506
 9979W        W 1903  24.722   0.295  49.689
 9980W        W 1904  12.735   9.737  50.622
 9981W        W 1905  21.248  30.201  50.599
 9982W        W 1906   0.285   9.264  51.065
 9983W        W 1907   2.752  29.234  49.676
 9984W        W 1908  20.263  44.707  53.358
 9985W        W 1909  21.756  29.243  53.805
 9986W        W 1910  17.264  19.739  51.051
 9987W        W 1911  18.737  23.756  53.804
 9988W        W 1912  37.733   9.247  50.585
 9989W        W 1913  25.708  16.765  51.056
 9990W        W 1914  46.218  19.732  53.328
 9991W        W 1915   7.754  40.718  52.862
 9992W        W 1916   6.786  38.225  49.689
 9993W        W 1917  23.753   7.747  49.696
 9994W        W 1918  20.264  46.214  53.354
 9995W        W 1919  12.759  10.749  53.346
 9996W        W 1920  33.744  12.740  50.128
 9997W        W 1921  18.265  33.726  51.534
 9998W        W 1922   9.740  39.701  51.492
 9999W        W 1923  17.729  12.763  52.416
10000W        W 1924  37.697  18.743  49.708
10001W        W 1925  45.701  43.204  53.358
10002W        W 1926  46.685  27.723  52.868
10003W        W 1927  28.228   3.267  53.347
10004W        W 1928  28.711  26.746  52.408
10005W        W 1929  38.697  28.724  53.812
10006W        W 1930  42.694  35.721  52.426
10007W        W 1931  27.252  16.267  49.703
10008W        W 1932  34.238  17.753  52.422
10009W        W 1933  37.727  16.746  51.961
10010W        W 1934  41.722  19.250  50.141
10011W        W 1935  31.199  19.230  52.433
10012W        W 1936  14.749  13.248  51.952
10013W        W 1937  25.213  45.711  52.407
10014W        W 1938  36.197  41.699  53.341
10015W        W 1939  41.728  42.699  53.804
10016W        W 1940  45.678  13.244  53.813
10017W        W 1941   5.265  30.222  50.588
10018W        W 1942  46.685  32.228  49.692
10019W        W 1943   0.287  23.256  50.129
10020W        W 1944  25.251  11.241  53.331
10021W        W 1945  35.233  27.748  50.147
10022W        W 1946  25.757  35.213  53.774
10023W        W 1947  32.199  24.254  51.506
10024W        W 1948   8.770   3.267  51.530
10025W        W 1949  12.247  35.241  52.416
10026W        W 1950  11.278  33.743  53.813
10027W        W 1951   3.763  38.194  51.072
10028W        W 1952  12.253  45.177  51.502
10029W        W 1953  33.199  32.710  52.879
10030W        W 1954   7.740  40.187  53.334
10031W        W 1955  18.242   5.253  50.137
10032W        W 1956   7.242   4.246  51.529
10033W        W 1957  26.247  17.735  51.949
10034W        W 1958   8.246  25.743  52.866
10035W        W 1959  26.745  47.718  52.429
10036W        W 1960  26.254  26.219  49.685
10037W        W 1961  13.238  22.742  50.621
10038W        W 1962  12.236  36.239  52.418
10039W        W 1963   8.240  35.696  50.147
10040W        W 1964  18.270  17.731  49.672
10041W        W 1965  25.754  35.714  50.144
10042W        W 1966  31.716  15.731  51.517
10043W        W 1967  29.217  27.710  51.052
10044W        W 1968  19.749  19.763  49.677
10045W        W 1969  10.278   5.244  50.600
10046W        W 1970  32.237  39.696  49.676
10047W        W 1971  44.683  39.722  50.593
10048W        W 1972  46.676  39.714  51.072
10049W        W 1973  28.250  44.699  52.433
10050W        W 1974  19.258   1.792  53.355
10051W        W 1975  45.701  19.251  53.776
10052W        W 1976  47.200   1.796  50.154
10053W        W 1977  38.193  41.185  52.417
10054W        W 1978   3.775  33.713  51.038
10055W        W 1979  26.229   8.777  53.356
10056W        W 1980  40.686   4.776  51.989
10057W        W 1981  40.690  26.244  49.665
10058W        W 1982  13.229   1.771  52.877
10059W        W 1983  18.240  26.224  52.903
10060W        W 1984  33.717  37.715  52.875
10061W        W 1985  44.717   5.754  49.705
10062W        W 1986  22.252  26.718  51.954
10063W        W 1987   2.277   7.272  50.616
10064W        W 1988  36.228  22.760  51.979
10065W        W 1989  11.759   9.236  53.817
10066W        W 1990  33.703   1.265  53.782
10067W        W 1991  20.236  29.735  51.063
10068W        W 1992  13.742  14.237  52.864
10069W        W 1993  18.753  24.242  53.336
10070W        W 1994  16.243  13.762  52.886
10071W        W 1995  38.728  44.724  50.125
10072W        W 1996  16.768  42.182  50.162
10073W        W 1997  19.741  22.735  51.039
10074W        W 1998  10.746  18.746  53.774
10075W        W 1999  30.210  23.214  52.445
10076W        W 2000   5.241  22.762  51.067
10077W        W 2001  38.199  12.769  51.527
10078W        W 2002  29.739  22.239  51.494
10079W        W 2003  29.712   6.786  51.519
10080W        W 2004   7.247  26.710  51.053
10081W        W 2005  35.227  12.247  50.127
10082W        W 2006  22.237  29.701  53.326
10083W        W 2007   4.259  38.694  49.680
10084W        W 2008  27.215   6.771  50.598
10085W        W 2009  20.226   3.254  50.148
10086W        W 2010  30.704  33.727  51.987
10087W        W 2011  25.221   6.763  51.515
10088W        W 2012  15.764  13.273  53.321
10089W        W 2013  42.205  15.754  53.802
10090W        W 2014  23.744  29.743  50.617
10091W        W 2015  14.752  25.717  51.982
10092W        W 2016  36.717  37.702  52.867
10093W        W 2017   0.283  21.727  51.968
10094W        W 2018  14.756   8.738  51.506
10095W        W 2019  14.756  40.717  51.988
10096W        W 2020  34.740  15.733  53.332
10097W        W 2021  40.221  27.243  53.805
10098W        W 2022  12.252  24.739  51.528
10099W        W 2023  26.222  42.720  49.688
10100W        W 2024  22.243  17.770  51.513
10101W        W 2025  48.200  40.227  52.436
10102W        W 2026  24.254  29.217  52.437
10103W        W 2027   9.772  42.698  52.901
10104W        W 2028   5.284  15.727  50.583
10105W        W 2029  26.226  38.706  50.131
10106W        W 2030  37.694  43.694  51.520
10107W        W 2031   6.780  39.724  53.359
10108W        W 2032  11.242  36.205  49.678
10109W        W 2033  45.721  19.234  50.141
10110W        W 2034  15.243  30.208  52.439
10111W        W 2035  32.221  36.697  52.878
10112W        W 2036   1.279  38.695  50.153
10113W        W 2037   6.262  38.223  51.954
10114W        W 2038  25.233  30.207  50.136
10115W        W 2039  16.272   6.240  51.519
10116W        W 2040  29.230  42.225  51.523
10117W        W 2041  31.742  34.714  53.360
10118W        W 2042  13.259  36.690  51.965
10119W        W 2043  25.232  15.232  52.426
10120W        W 2044  14.269  25.741  51.524
10121W        W 2045  42.707  25.244  51.954
10122W        W 2046   6.284  28.735  51.497
10123W        W 2047  21.758  43.189  52.872
10124W        W 2048  36.733  37.715  53.316
10125W        W 2049   4.247  39.731  51.059
10126W        W 2050  13.229  41.714  51.510
10127W        W 2051  21.230  14.257  52.890
10128W        W 2052  12.271  13.732  50.579
10129W        W 2053  36.207   6.278  49.679
10130W        W 2054  28.703  13.249  50.126
10131W        W 2055  20.719  41.702  53.805
10132W        W 2056  11.271  20.264  50.594
10133W        W 2057  16.769  47.190  51.075
10134W        W 2058   1.271  35.718  51.508
10135W        W 2059  46.692  12.766  52.890
10136W        W 2060  43.226  20.247  52.888
10137W        W 2061   6.746   0.764  53.358
10138W        W 2062  36.202  14.269  52.901
10139W        W 2063  14.252  40.715  53.342
10140W        W 2064  17.255  22.244  50.140
10141W        W 2065  19.226  20.721  51.079
10142W        W 2066  41.185   5.774  53.802
10143W        W 2067  10.758  43.215  50.130
10144W        W 2068  13.240   2.273  51.527
10145W        W 2069  39.201  22.741  52.878
10146W        W 2070  11.235  39.211  51.980
10147W        W 2071  14.755  25.749  52.877
10148W        W 2072   4.289  21.220  49.697
10149W        W 2073   8.238  10.264  52.408
10150W        W 2074  34.225  24.738  50.162
10151W        W 2075  10.747  40.724  52.864
10152W        W 2076  44.207  22.224  53.354
10153W        W 2077  31.724  32.723  49.669
10154W        W 2078  14.752  23.741  52.894
10155W        W 2079  38.220   3.760  50.140
10156W        W 2080  29.749  25.710  52.888
10157W        W 2081  33.742  43.699  53.341
10158W        W 2082  15.252  39.207  52.862
10159W        W 2083   2.783  20.228  50.605
10160W        W 2084   7.784  19.260  53.326
10161W        W 2085  46.195  23.720  50.586
10162W        W 2086  39.232  25.719  49.667
10163W        W 2087  42.230   5.249  49.690
10164W        W 2088  13.752  23.253  51.513
10165W        W 2089   5.282   3.763  53.796
10166W        W 2090  30.714  28.217  52.892
10167W        W 2091  32.211  19.260  52.861
10168W        W 2092  28.210   4.763  52.893
10169W        W 2093   3.782   4.277  52.905
10170W        W 2094  19.246  20.248  52.875
10171W        W 2095   9.779   3.786  52.887
10172W        W 2096  10.781  25.749  49.684
10173W        W 2097  21.229   8.263  50.153
10174W        W 2098  41.722  10.758  52.892
10175W        W 2099   6.773  46.219  50.140
10176W        W 2100  41.203  44.226  52.905
10177W        W 2101   5.784  26.727  52.900
10178W        W 2102  15.262  26.245  52.892
10179W        W 2103  31.712   6.768  51.988
10180W        W 2104  33.238  31.747  50.598
10181W        W 2105  19.766  41.190  51.974
10182W        W 2106  46.201  15.253  50.123
10183W        W 2107  19.237  15.767  53.776
10184W        W 2108  34.729  43.720  51.074
10185W        W 2109  20.749  42.227  51.951
10186W        W 2110  14.237  13.250  50.135
10187W        W 2111  23.761  42.188  51.965
10188W        W 2112   9.745  44.713  51.044
10189W        W 2113  21.728  15.266  52.431
10190W        W 2114  33.738  27.252  50.130
10191W        W 2115  30.731   9.238  52.899
10192W        W 2116  47.177  16.747  50.600
10193W        W 2117  18.751  19.753  52.442
10194W        W 2118   8.238  48.183  53.335
10195W        W 2119   1.284  35.718  53.779
10196W        W 2120  11.250  20.751  50.594
10197W        W 2121  45.223  28.218  50.123
10198W        W 2122   9.746  36.720  49.689
10199W        W 2123   6.774  36.230  53.805
10200W        W 2124  38.690  18.760  53.790
10201W        W 2125   5.778  26.715  51.990
10202W        W 2126  29.708  14.764  51.963
10203W        W 2127  40.712  38.226  50.166
10204W        W 2128  45.706  11.760  51.035
10205W        W 2129  44.194  18.747  51.068
10206W        W 2130  47.213  30.715  50.605
10207W        W 2131  23.756  23.736  50.163
10208W        W 2132  38.715  43.200  49.666
10209W        W 2133  44.708  12.243  49.695
10210W        W 2134  47.697  31.242  51.514
10211W        W 2135  44.222   1.292  50.619
10212W        W 2136  15.738  13.265  52.440
10213W        W 2137   0.765  32.239  52.442
10214W        W 2138  18.735  45.702  51.522
10215W        W 2139  14.744  21.754  51.068
10216W        W 2140  14.748  42.684  52.422
10217W        W 2141   9.282  34.199  53.776
10218W        W 2142  34.204  39.196  50.613
10219W        W 2143   8.784  22.257  50.621
10220W        W 2144  32.699  46.676  52.437
10221W        W 2145  17.239  22.220  53.805
10222W        W 2146   9.751  45.188  53.784
10223W        W 2147   1.278  39.732  51.535
10224W        W 2148  40.184  15.250  52.437
10225W        W 2149  33.222   8.257  51.073
10226W        W 2150  40.219  42.215  51.042
10227W        W 2151  17.755   5.780  52.446
10228W        W 2152   4.751  20.745  51.534
10229W        W 2153  25.230  12.277  51.984
10230W        W 2154  14.249   5.278  51.986
10231W        W 2155   7.278  21.718  49.704
10232W        W 2156  33.730  34.715  51.990
10233W        W 2157  16.748  26.752  49.669
10234W        W 2158  31.711  31.735  52.883
10235W        W 2159  11.269  17.750  51.041
10236W        W 2160  26.746  40.198  51.507
10237W        W 2161   8.753  29.728  52.892
10238W        W 2162  45.189  44.223  53.809
10239W        W 2163   8.284   7.271  53.796
10240W        W 2164  11.756  39.732  53.797
10241W        W 2165  35.741   3.768  52.869
10242W        W 2166  30.739  39.732  52.411
10243W        W 2167  18.759   0.786  53.339
10244W        W 2168  12.730  40.692  49.708
10245W        W 2169  37.691  30.247  50.161
10246W        W 2170  13.249  20.743  49.706
10247W        W 2171  42.697  17.236  51.060
10248W        W 2172   8.744   4.265  52.429
10249W        W 2173   9.266  10.282  52.863
10250W        W 2174   2.784  38.709  50.620
10251W        W 2175  17.251   3.284  50.166
10252W        W 2176   4.782  11.251  49.705
10253W        W 2177  45.181   2.247  51.515
10254W        W 2178  39.199  29.728  51.037
10255W        W 2179  36.227  45.194  53.811
10256W        W 2180   8.782  39.194  50.588
10257W        W 2181  44.682  18.744  51.518
10258W        W 2182  30.205  39.209  52.446
10259W        W 2183  44.205  34.737  52.897
10260W        W 2184  34.231  22.224  49.674
10261W        W 2185   7.767   8.237  49.686
10262W        W 2186  43.204  34.707  50.166
10263W        W 2187  40.696  47.679  53.358
10264W        W 2188  43.223  16.746  52.885
10265W        W 2189  17.739  45.675  50.586
10266W        W 2190  41.186  16.262  52.442
10267W        W 2191  29.222   3.272  53.780
10268W        W 2192  40.197   8.280  51.061
10269W        W 2193   3.750  42.712  51.963
10270W        W 2194  31.746  25.220  50.592
10271W        W 2195  30.706  30.749  52.899
10272W        W 2196   0.772  47.220  51.036
10273W        W 2197  40.699  42.220  52.897
10274W        W 2198  29.223  18.720  49.666
10275W        W 2199  38.734   1.258  53.789
10276W        W 2200  46.679  42.722  50.620
10277W        W 2201  33.726  28.717  50.617
10278W        W 2202  35.739  45.213  53.352
10279W        W 2203   5.759  21.758  53.776
10280W        W 2204  26.744  16.225  53.797
10281W        W 2205  39.213   4.254  51.991
10282W        W 2206  13.256  41.187  51.976
10283W        W 2207  38.233  40.707  53.790
10284W        W 2208  27.212   7.260  53.808
10285W        W 2209  20.229  37.226  53.815
10286W        W 2210  35.692   7.273  51.968
10287W        W 2211  21.238  21.757  51.512
10288W        W 2212  38.690  17.227  52.893
10289W        W 2213  47.672  27.231  51.978
10290W        W 2214  16.727  34.241  51.519
10291W        W 2215  35.724   0.255  53.358
10292W        W 2216  41.681  32.203  52.433
10293W        W 2217  17.764  39.233  53.776
10294W        W 2218   6.253   0.753  53.321
10295W        W 2219  33.218  12.772  53.774
10296W        W 2220  17.254  41.231  52.445
10297W        W 2221  20.760  43.219  52.865
10298W        W 2222   0.771  28.704  51.501
10299W        W 2223  36.691  23.756  52.436
10300W        W 2224  42.185   3.775  49.678
10301W        W 2225  30.740  46.680  52.868
10302W        W 2226  18.234  31.712  51.958
10303W        W 2227  38.695  16.244  51.963
10304W        W 2228  47.715  17.726  53.317
10305W        W 2229   9.249   5.754  51.982
10306W        W 2230  40.220  42.221  50.595
10307W        W 2231  47.712   0.786  49.665
10308W        W 2232  21.757  31.246  53.359
10309W        W 2233  28.219  10.276  52.423
10310W        W 2234  45.687  24.239  51.520
10311W        W 2235   5.250  46.693  52.436
10312W        W 2236   0.296  20.744  51.052
10313W        W 2237  28.714  12.273  49.680
10314W        W 2238  45.213  27.738  51.056
10315W        W 2239  35.692  22.761  51.045
10316W        W 2240  25.243  32.220  52.404
10317W        W 2241  24.227  39.729  51.989
10318W        W 2242  40.193  45.717  53.346
10319W        W 2243   3.281  12.773  53.780
10320W        W 2244  48.197  20.265  53.332
10321W        W 2245  23.217  33.695  52.861
10322W        W 2246  28.211  21.224  52.892
10323W        W 2247   2.759  25.743  53.337
10324W        W 2248  23.229   1.268  50.146
10325W        W 2249   0.285  15.743  52.413
10326W        W 2250  27.230  29.749  50.589
10327W        W 2251  24.726  44.216  51.963
10328W        W 2252  13.741  29.732  51.504
10329W        W 2253  45.714  36.209  51.968
10330W        W 2254  26.243  38.697  51.522
10331W        W 2255  22.257  32.722  50.129
10332W        W 2256   8.278  37.720  51.076
10333W        W 2257  20.725  33.210  52.404
10334W        W 2258  24.249  20.253  51.534
10335W        W 2259   0.762  36.708  50.125
10336W        W 2260  18.759   7.757  53.810
10337W        W 2261  13.752  10.764  49.688
10338W        W 2262  24.252  18.247  53.786
10339W        W 2263  33.701  10.282  51.505
10340W        W 2264   8.263  27.250  51.969
10341W        W 2265  22.738  33.240  50.121
10342W        W 2266   2.285  16.749  53.331
10343W        W 2267  33.709  16.253  53.787
10344W        W 2268  20.221  27.221  51.527
10345W        W 2269   6.258   7.768  52.864
10346W        W 2270  22.257  38.726  51.955
10347W        W 2271  20.755  18.745  53.816
10348W        W 2272  42.722   3.263  50.597
10349W        W 2273  19.228  19.749  52.419
10350W        W 2274  42.724  28.229  52.888
10351W        W 2275  33.204  46.709  49.691
10352W        W 2276  27.222  26.728  50.140
10353W        W 2277   1.763   1.772  50.149
10354W        W 2278  41.692  33.723  51.037
10355W        W 2279  26.744  19.718  51.966
10356W        W 2280  47.217  41.725  49.669
10357W        W 2281  28.207  42.719  53.320
10358W        W 2282  15.245  19.265  49.685
10359W        W 2283  15.736  44.712  52.861
10360W        W 2284  27.724  30.216  53.356
10361W        W 2285  13.271   6.781  52.889
10362W        W 2286  39.719  44.205  50.122
10363W        W 2287  14.269  15.727  51.500
10364W        W 2288   4.288   5.772  52.416
10365W        W 2289  43.205  31.728  51.527
10366W        W 2290  16.733  18.751  52.411
10367W        W 2291  38.221  12.739  50.615
10368W        W 2292  16.254  20.256  51.067
10369W        W 2293  36.691  11.259  51.966
10370W        W 2294  48.177  16.229  50.584
10371W        W 2295  24.244   6.286  53.785
10372W        W 2296  13.748  30.212  52.885
10373W        W 2297  38.228  24.718  50.605
10374W        W 2298  41.190  18.738  50.597
10375W        W 2299  35.197  36.211  53.814
10376W        W 2300  29.730  45.212  53.323
10377W        W 2301  18.720  37.737  53.327
10378W        W 2302  37.211   6.284  50.140
10379W        W 2303  38.702  25.728  51.037
10380W        W 2304  12.272  21.245  50.126
10381W        W 2305  22.737  21.237  51.949
10382W        W 2306   1.786  24.727  51.517
10383W        W 2307  10.271  44.719  53.781
10384W        W 2308  12.750  25.741  52.410
10385W        W 2309  41.686  29.750  49.703
10386W        W 2310  18.251   7.266  53.812
10387W        W 2311  42.201  21.751  53.317
10388W        W 2312   5.279  40.188  51.982
10389W        W 2313  28.731  42.722  50.160
10390W        W 2314  23.218  22.241  51.974
10391W        W 2315  34.735  41.195  50.131
10392W        W 2316   7.767  22.229  53.810
10393W        W 2317  13.759  30.202  49.685
10394W        W 2318  44.179  41.691  52.890
10395W        W 2319  32.218   2.251  53.798
10396W        W 2320  11.274  32.740  50.611
10397W        W 2321  29.204  29.226  52.431
10398W        W 2322  43.195   3.269  53.773
10399W        W 2323  13.261  36.238  53.781
10400W        W 2324  40.192   9.770  50.132
10401W        W 2325  20.718  36.715  51.992
10402W        W 2326   7.243  24.757  53.340
10403W        W 2327  37.208  25.214  52.430
10404W        W 2328   7.242  35.714  53.795
10405W        W 2329  19.742  18.760  51.946
10406W        W 2330  25.710   9.243  52.417
10407W        W 2331   0.752  13.747  51.964
10408W        W 2332  33.742  43.228  52.884
10409W        W 2333  42.210   7.245  51.047
10410W        W 2334   1.754  34.713  51.989
10411W        W 2335  16.252  32.204  52.869
10412W        W 2336  31.702   5.769  51.962
10413W        W 2337  37.702  24.752  51.991
10414W        W 2338  13.275  31.726  50.122
10415W        W 2339  40.704   0.779  53.326
10416W        W 2340   5.777   5.249  49.668
10417W        W 2341  34.742  10.264  52.892
10418W        W 2342  16.243  23.747  52.893
10419W        W 2343   0.750   5.283  52.894
10420W        W 2344   0.749  38.732  51.979
10421W        W 2345   8.284   8.263  50.617
10422W        W 2346   9.743  32.244  51.963
10423W        W 2347  39.203  32.712  51.964
10424W        W 2348  27.719  10.242  51.496
10425W        W 2349   8.252  26.230  53.778
10426W        W 2350   3.267  41.703  50.154
10427W        W 2351   0.790  32.238  52.878
10428W        W 2352  26.216  19.225  51.951
10429W        W 2353  21.759  47.718  52.442
10430W        W 2354  34.218   5.758  50.140
10431W        W 2355  30.738  45.180  53.775
10432W        W 2356  18.745  30.729  49.668
10433W        W 2357  24.740  15.748  49.676
10434W        W 2358  25.235   8.747  53.329
10435W        W 2359  20.763  11.766  49.673
10436W        W 2360  21.727  21.762  51.969
10437W        W 2361   6.739  32.744  52.445
10438W        W 2362  27.717  25.227  51.949
10439W        W 2363  29.711  27.711  53.333
10440W        W 2364  19.720  16.273  53.795
10441W        W 2365  13.240  13.769  50.581
10442W        W 2366  12.258  15.752  52.426
10443W        W 2367   8.273  36.204  49.706
10444W        W 2368  37.690   2.251  50.157
10445W        W 2369  29.713  22.258  51.979
10446W        W 2370  16.747   5.763  51.036
10447W        W 2371  42.705  43.200  53.359
10448W        W 2372  42.182  25.221  51.986
10449W        W 2373   8.264  34.728  50.612
10450W        W 2374   4.748  19.250  52.414
10451W        W 2375  30.212  22.717  52.886
10452W        W 2376  19.219   6.266  52.872
10453W        W 2377  41.227   5.764  51.042
10454W        W 2378  46.691   6.743  50.164
10455W        W 2379  39.732  42.219  50.580
10456W        W 2380  26.752  25.229  52.887
10457W        W 2381  43.203  11.272  50.139
10458W        W 2382  29.732  11.247  52.410
10459W        W 2383  45.205  20.751  53.325
10460W        W 2384  13.736  11.270  50.131
10461W        W 2385  15.767  27.747  51.520
10462W        W 2386  38.236  13.740  51.533
10463W        W 2387  28.204   1.792  51.975
10464W        W 2388  35.740  24.254  51.046
10465W        W 2389  17.742  15.271  49.690
10466W        W 2390   1.784   9.780  51.495
10467W        W 2391  35.729  41.184  53.782
10468W        W 2392   3.278  21.758  53.775
10469W        W 2393  31.707   0.253  53.796
10470W        W 2394  22.263   0.772  52.431
10471W        W 2395  24.718  32.742  49.665
10472W        W 2396   8.783  41.724  51.526
10473W        W 2397  15.739  27.725  51.960
10474W        W 2398  28.236  25.727  51.076
10475W        W 2399   7.261   0.253  51.534
10476W        W 2400  34.211  42.713  51.952
10477W        W 2401  18.240  21.739  50.164
10478W        W 2402  10.769  43.717  49.694
10479W        W 2403  42.227  20.226  50.134
10480W        W 2404  43.217   3.271  53.351
10481W        W 2405  21.738  15.267  52.869
10482W        W 2406  15.236  18.238  53.786
10483W        W 2407  38.232  14.245  51.044
10484W        W 2408  32.729  14.266  52.435
10485W        W 2409  35.740  43.183  51.060
10486W        W 2410  19.249  46.191  51.523
10487W        W 2411  40.186  25.754  53.338
10488W        W 2412  35.700  24.251  53.348
10489W        W 2413  13.234  32.740  50.137
10490W        W 2414  43.200  21.227  52.871
10491W        W 2415  17.759  46.674  50.583
10492W        W 2416  41.699   9.249  52.876
10493W        W 2417  18.760  22.716  53.779
10494W        W 2418  32.222  27.224  53.814
10495W        W 2419  23.741  44.183  51.977
10496W        W 2420   3.253  13.747  49.668
10497W        W 2421   8.256   7.279  50.164
10498W        W 2422   1.778   5.287  52.874
10499W        W 2423   2.791  28.726  53.811
10500W        W 2424  22.228   4.760  50.590
10501W        W 2425  38.697   0.785  52.903
10502W        W 2426  31.248  40.189  53.795
10503W        W 2427  35.208  31.746  50.128
10504W        W 2428  11.734  36.692  52.443
10505W        W 2429  45.717  11.253  50.582
10506W        W 2430  46.692  39.195  53.334
10507W        W 2431  10.240  19.748  52.429
10508W        W 2432  30.220   9.749  49.690
10509W        W 2433  46.705  39.701  50.156
10510W        W 2434  16.732  48.172  52.443
10511W        W 2435  14.245  26.733  52.890
10512W        W 2436  47.703  15.760  52.872
10513W        W 2437   8.274   8.749  50.606
10514W        W 2438  36.237  32.242  51.043
10515W        W 2439  41.190   9.252  50.595
10516W        W 2440  35.204  22.762  53.809
10517W        W 2441  35.232  19.232  50.127
10518W        W 2442  46.174  46.692  49.695
10519W        W 2443  31.734  44.706  53.789
10520W        W 2444  13.229  35.734  50.143
10521W        W 2445  42.199  21.232  53.817
10522W        W 2446  46.720  42.198  51.498
10523W        W 2447  15.265  19.755  49.682
10524W        W 2448  22.221  34.201  51.036
10525W        W 2449   7.746  20.219  53.794
10526W        W 2450  33.212  36.690  52.426
10527W        W 2451   1.298  39.199  53.356
10528W        W 2452  18.741  12.254  49.705
10529W        W 2453  45.195  17.226  53.774
10530W        W 2454  35.207  43.184  53.355
10531W        W 2455  34.195  22.752  50.121
10532W        W 2456  22.225   1.281  53.319
10533W        W 2457  17.260  48.199  50.156
10534W        W 2458  39.690   8.763  51.499
10535W        W 2459   9.273  45.708  50.598
10536W        W 2460   3.288  36.703  49.702
10537W        W 2461  26.736  24.743  53.777
10538W        W 2462  35.696  32.233  50.156
10539W        W 2463  29.242  44.720  50.586
10540W        W 2464  23.746  18.762  50.587
10541W        W 2465  36.692  46.714  52.423
10542W        W 2466  18.726  35.239  52.901
10543W        W 2467  25.730   8.252  52.426
10544W        W 2468  45.176  30.726  51.974
10545W        W 2469  10.759  29.713  52.414
10546W        W 2470   5.781  41.692  53.359
10547W        W 2471  20.760   0.793  50.131
10548W        W 2472  23.252  14.762  50.618
10549W        W 2473   1.775   5.253  51.494
10550W        W 2474  45.704  39.720  51.516
10551W        W 2475  26.745  45.679  49.678
10552W        W 2476  18.755  33.700  50.600
10553W        W 2477   5.282  25.747  52.410
10554W        W 2478  23.233  29.711  53.791
10555W        W 2479  22.229  28.732  51.496
10556W        W 2480  31.229  45.686  53.329
10557W        W 2481  34.202   5.745  53.334
10558W        W 2482  37.717  30.703  53.328
10559W        W 2483   9.739  43.184  51.054
10560W        W 2484   5.261  13.257  51.989
10561W        W 2485  12.773  39.698  51.500
10562W        W 2486  27.733  44.681  51.525
10563W        W 2487  18.234  22.718  51.531
10564W        W 2488  13.753  20.740  50.582
10565W        W 2489  43.723  42.713  50.133
10566W        W 2490  29.218  39.686  52.420
10567W        W 2491   7.246  38.695  53.776
10568W        W 2492  12.237   3.769  51.039
10569W        W 2493  30.718  24.258  53.808
10570W        W 2494   2.281  27.742  51.062
10571W        W 2495   2.290  18.232  51.959
10572W        W 2496  39.233  19.726  51.968
10573W        W 2497  42.192  13.734  52.422
10574W        W 2498  34.736  24.234  51.532
10575W        W 2499  11.742  31.723  51.988
10576W        W 2500  11.269   1.767  52.441
10577W        W 2501  14.236  31.716  51.037
10578W        W 2502  35.224  28.207  52.403
10579W        W 2503  39.208   3.752  53.777
10580W        W 2504  29.210  23.745  52.899
10581W        W 2505  38.226  23.260  51.962
10582W        W 2506  48.177  36.733  53.802
10583W        W 2507   6.774  39.235  50.158
10584W        W 2508  41.208  16.270  53.814
10585W        W 2509  24.756  44.719  52.864
10586W        W 2510  34.237  22.231  53.783
10587W        W 2511  18.755  19.245  52.873
10588W        W 2512  34.731  11.740  52.898
10589W        W 2513  35.730   1.248  50.134
10590W        W 2514   6.277  34.240  50.162
10591W        W 2515  10.757  45.189  49.706
10592W        W 2516   5.767  10.771  51.968
10593W        W 2517  19.718  35.237  52.425
10594W        W 2518  30.726   6.764  49.697
10595W        W 2519  28.733  12.738  51.970
10596W        W 2520  21.226  34.736  51.966
10597W        W 2521  43.683  23.751  53.323
10598W        W 2522  28.722   2.747  52.874
10599W        W 2523   2.790  43.697  51.037
10600W        W 2524   7.248  28.243  51.987
10601W        W 2525  42.723   6.787  49.692
10602W        W 2526  36.206  22.715  49.689
10603W        W 2527  10.239  17.264  51.495
10604W        W 2528  38.727  45.719  51.967
10605W        W 2529  46.704  13.769  52.440
10606W        W 2530  11.744  30.249  52.882
10607W        W 2531  37.727   3.245  49.671
10608W        W 2532  12.250  47.707  51.528
10609W        W 2533  14.760  18.263  53.355
10610W        W 2534  19.735  16.731  51.508
10611W        W 2535   4.257   4.774  50.126
10612W        W 2536   3.755  25.739  50.592
10613W        W 2537  48.197  18.742  49.688
10614W        W 2538  18.722  28.205  51.056
10615W        W 2539  33.715  47.707  52.424
10616W        W 2540  33.199  41.686  49.668
10617W        W 2541  18.735  13.773  49.708
10618W        W 2542  11.752  36.230  51.981
10619W        W 2543  46.208  11.239  53.815
10620W        W 2544  36.224   7.786  52.416
10621W        W 2545  35.195  18.229  53.814
10622W        W 2546   8.769  15.263  51.493
10623W        W 2547  20.259  39.718  52.404
10624W        W 2548  28.735   0.767  52.897
10625W        W 2549   7.738  37.692  50.125
10626W        W 2550  22.742  13.755  52.414
10627W        W 2551  29.220  13.753  53.323
10628W        W 2552  18.259   1.789  50.590
10629W        W 2553  42.720  35.214  52.896
10630W        W 2554  19.721  41.227  50.148
10631W        W 2555  29.240  27.249  51.952
10632W        W 2556   9.241  13.732  50.611
10633W        W 2557  29.211   6.741  52.879
10634W        W 2558  28.213  20.736  49.703
10635W        W 2559   3.279  34.218  53.787
10636W        W 2560  38.213  25.732  52.408
10637W        W 2561  11.264   3.761  53.814
10638W        W 2562  27.222   2.760  50.612
10639W        W 2563   4.248  16.262  50.605
10640W        W 2564  20.744  32.720  50.163
10641W        W 2565  23.729  37.228  51.970
10642W        W 2566  27.250  24.733  53.793
10643W        W 2567  39.233  36.216  50.165
10644W        W 2568  25.745  11.731  51.506
10645W        W 2569  42.705   7.277  53.800
10646W        W 2570  26.219  40.229  52.898
10647W        W 2571  43.201  23.729  53.802
10648W        W 2572   3.262  15.762  49.685
10649W        W 2573  32.715  27.719  53.797
10650W        W 2574  29.235   9.241  51.053
10651W        W 2575  31.242  14.767  53.803
10652W        W 2576   3.261   2.782  52.866
10653W        W 2577  15.741   0.297  51.035
10654W        W 2578   2.257  45.191  52.432
10655W        W 2579  37.218  47.184  52.901
10656W        W 2580  17.241  31.732  50.152
10657W        W 2581   1.790  36.233  51.983
10658W        W 2582  27.255  25.726  51.988
10659W        W 2583  40.713  13.257  51.038
10660W        W 2584   9.274  10.733  51.949
10661W        W 2585   3.268   1.768  51.062
10662W        W 2586  47.202   4.756  51.052
10663W        W 2587  12.737  44.691  52.441
10664W        W 2588  36.714  47.710  50.602
10665W        W 2589   9.247   4.261  50.598
10666W        W 2590   0.263  25.729  50.605
10667W        W 2591  22.727  39.696  53.800
10668W        W 2592  19.230  29.221  52.446
10669W        W 2593  19.727   5.271  50.139
10670W        W 2594  31.224  30.207  52.409
10671W        W 2595  27.706  31.711  53.811
10672W        W 2596  25.226  19.754  52.886
10673W        W 2597   2.263  35.726  51.978
10674W        W 2598  20.718  25.209  51.950
10675W        W 2599  20.757  28.710  53.341
10676W        W 2600  25.734  39.703  50.581
10677W        W 2601  23.760   0.757  53.795
10678W        W 2602  25.712  33.723  51.946
10679W        W 2603  43.706  44.222  53.335
10680W        W 2604  44.722  21.764  50.136
10681W        W 2605  34.713  39.218  51.063
10682W        W 2606  12.738  19.250  50.142
10683W        W 2607  47.708  21.740  52.431
10684W        W 2608  45.696  15.745  49.708
10685W        W 2609  23.724  46.719  52.883
10686W        W 2610   2.750  20.725  53.327
10687W        W 2611  33.734   9.256  51.982
10688W        W 2612   6.278  44.193  51.964
10689W        W 2613  34.717  13.239  52.429
10690W        W 2614  16.271  26.708  53.780
10691W        W 2615   3.285  17.755  51.051
10692W        W 2616  29.732   1.253  49.697
10693W        W 2617  45.185  32.234  52.440
10694W        W 2618  45.183  28.236  52.897
10695W        W 2619  41.693  19.736  49.702
10696W        W 2620  20.263   0.263  52.428
10697W        W 2621   9.778  29.245  50.162
10698W        W 2622  41.225  40.724  50.133
10699W        W 2623  31.704  38.729  53.316
10700W        W 2624  40.731   0.271  52.410
10701W        W 2625   5.289  28.730  53.775
10702W        W 2626  30.230  31.228  51.968
10703W        W 2627  47.698  47.672  52.872
10704W        W 2628  15.746  31.205  52.864
10705W        W 2629  22.714  26.717  50.157
10706W        W 2630  34.208  31.201  49.693
10707W        W 2631   4.246   0.750  49.695
10708W        W 2632  28.708  29.243  52.448
10709W        W 2633  35.701  35.710  53.341
10710W        W 2634  13.728  18.242  51.530
10711W        W 2635  32.735   7.259  53.343
10712W        W 2636  28.222  28.716  50.601
10713W        W 2637  24.215  47.187  52.437
10714W        W 2638  44.691  41.725  53.349
10715W        W 2639  42.215  28.245  53.360
10716W        W 2640  36.195   4.757  53.359
10717W        W 2641  32.230  37.727  52.897
10718W        W 2642  18.720  41.726  51.513
10719W        W 2643  23.247   5.259  53.320
10720W        W 2644  33.202  29.237  52.890
10721W        W 2645  24.731  14.274  53.808
10722W        W 2646  37.196  35.210  51.957
10723W        W 2647  33.244  35.708  50.608
10724W        W 2648  10.742  38.229  51.038
10725W        W 2649  35.220   2.778  52.410
10726W        W 2650  35.729  16.261  49.689
10727W        W 2651   7.241  41.184  52.897
10728W        W 2652  10.245  16.231  50.139
10729W        W 2653  26.247  38.695  51.986
10730W        W 2654  15.745  38.231  53.356
10731W        W 2655  21.731  29.226  50.130
10732W        W 2656  19.731  47.221  52.419
10733W        W 2657  34.719  31.713  50.131
10734W        W 2658  20.717  34.199  50.608
10735W        W 2659  18.263  37.714  51.518
10736W        W 2660  45.203   8.246  51.065
10737W        W 2661  46.682   0.298  50.163
10738W        W 2662  31.701  47.207  53.798
10739W        W 2663  36.204  42.710  53.316
10740W        W 2664  21.759  12.241  51.490
10741W        W 2665  19.219  18.748  49.699
10742W        W 2666  20.719  35.197  53.318
10743W        W 2667  45.184  36.708  51.506
10744W        W 2668  15.728  41.198  52.883
10745W        W 2669  31.246  39.230  49.666
10746W        W 2670   8.737  13.739  51.513
10747W        W 2671  38.731   5.746  51.983
10748W        W 2672  43.190  12.738  52.902
10749W        W 2673   6.282  37.721  50.612
10750W        W 2674  26.217  40.703  51.490
10751W        W 2675   8.267  15.262  52.426
10752W        W 2676   1.265  12.274  51.492
10753W        W 2677   5.244  22.739  52.867
10754W        W 2678  23.746  32.207  52.423
10755W        W 2679  11.248  42.729  52.421
10756W        W 2680  34.242  28.726  50.601
10757W        W 2681  19.234   6.760  53.318
10758W        W 2682  28.743  38.709  51.062
10759W        W 2683  17.246  47.222  51.500
10760W        W 2684   1.249  38.699  49.668
10761W        W 2685  33.743  37.721  51.529
10762W        W 2686  11.770  46.683  51.050
10763W        W 2687  46.216   2.264  51.953
10764W        W 2688   4.776  10.238  50.130
10765W        W 2689  17.237  22.249  51.075
10766W        W 2690   6.784  35.703  53.785
10767W        W 2691  41.717  40.233  51.955
10768W        W 2692  36.709  19.234  51.985
10769W        W 2693  27.235   7.764  51.962
10770W        W 2694  40.722  43.198  52.871
10771W        W 2695   1.755  25.741  49.676
10772W        W 2696   8.256  24.715  51.526
10773W        W 2697  15.270  34.204  49.705
10774W        W 2698   6.771  29.721  52.893
10775W        W 2699  21.259  16.739  49.680
10776W        W 2700  17.724  28.748  52.875
10777W        W 2701  17.742  36.204  53.330
10778W        W 2702  34.227  37.238  49.704
10779W        W 2703  46.220  11.275  51.964
10780W        W 2704  42.692  16.764  53.778
10781W        W 2705   1.295  35.714  50.144
10782W        W 2706  36.236  48.201  49.697
10783W        W 2707   5.789  43.687  52.878
10784W        W 2708  37.209  23.252  51.516
10785W        W 2709  34.742   9.270  52.435
10786W        W 2710  26.714   4.251  53.325
10787W        W 2711   2.768  17.228  50.581
10788W        W 2712  37.718  20.228  50.153
10789W        W 2713   5.750  20.735  52.425
10790W        W 2714  46.176   6.264  51.976
10791W        W 2715  11.263  28.727  51.526
10792W        W 2716  44.222  31.747  50.619
10793W        W 2717  18.735   2.281  50.622
10794W        W 2718  21.258  27.714  53.348
10795W        W 2719  37.228   9.256  50.154
10796W        W 2720  24.728  13.745  51.046
10797W        W 2721  12.244  11.249  52.434
10798W        W 2722  30.234  44.195  51.972
10799W        W 2723  11.253  45.695  52.867
10800W        W 2724  41.722  19.229  51.520
10801W        W 2725  18.224  28.238  52.899
10802W        W 2726  15.233  17.236  51.988
10803W        W 2727  14.728   1.293  51.966
10804W        W 2728   4.280  24.241  50.582
10805W        W 2729  16.736  42.724  51.038
10806W        W 2730  11.740   2.287  50.127
10807W        W 2731  21.729  22.241  51.975
10808W        W 2732  46.213   5.773  50.614
10809W        W 2733  30.214   1.296  52.405
10810W        W 2734  24.720  37.189  49.687
10811W        W 2735  25.223   9.745  52.901
10812W        W 2736  34.216  22.222  52.414
10813W        W 2737  16.756  17.261  49.700
10814W        W 2738   8.783  17.733  53.327
10815W        W 2739  45.694  25.241  51.960
10816W        W 2740  17.760  15.244  51.034
10817W        W 2741  28.248  19.738  52.424
10818W        W 2742  21.750  35.234  53.328
10819W        W 2743   2.293  38.728  51.530
10820W        W 2744   1.768  42.189  49.708
10821W        W 2745  16.253  12.746  50.588
10822W        W 2746   8.736  16.262  53.355
10823W        W 2747  20.229  45.724  50.577
10824W        W 2748  48.192  27.742  50.126
10825W        W 2749   9.252  24.730  49.682
10826W        W 2750  42.187  16.770  51.037
10827W        W 2751  14.274  27.247  53.780
10828W        W 2752  47.703  39.224  53.344
10829W        W 2753  28.723  22.230  52.440
10830W        W 2754   1.782  11.753  50.153
10831W        W 2755   5.773  37.710  52.417
10832W        W 2756   7.268  24.224  51.060
10833W        W 2757  39.733  40.191  51.063
10834W        W 2758  17.759  33.706  52.862
10835W        W 2759  46.705  15.257  53.339
10836W        W 2760  35.212  23.750  51.036
10837W        W 2761   4.750  38.229  50.589
10838W        W 2762  35.717  47.704  51.950
10839W        W 2763  32.217  13.773  50.149
10840W        W 2764  31.702  47.176  51.962
10841W        W 2765  17.769  41.700  51.985
10842W        W 2766  23.725  46.191  52.433
10843W        W 2767  47.187   7.758  53.361
10844W        W 2768   0.749  21.254  51.970
10845W        W 2769  43.695  11.776  52.409
10846W        W 2770  45.690  47.690  53.329
10847W        W 2771  46.680  32.745  50.608
10848W        W 2772  14.272  31.716  49.680
10849W        W 2773  12.240  10.736  53.787
10850W        W 2774  24.254   2.258  53.347
10851W        W 2775  12.261   8.285  52.420
10852W        W 2776  20.745   8.750  50.160
10853W        W 2777   0.282  35.732  51.075
10854W        W 2778  24.227  41.224  51.055
10855W        W 2779  34.202   3.251  53.815
10856W        W 2780   8.764  43.705  50.158
10857W        W 2781   1.793  18.248  50.607
10858W        W 2782  39.711  35.196  53.773
10859W        W 2783  11.744   4.769  51.066
10860W        W 2784  33.711  37.211  52.404
10861W        W 2785  47.704   0.767  50.153
10862W        W 2786   8.241   1.795  52.427
10863W        W 2787  35.726   0.771  49.680
10864W        W 2788  29.240  25.724  51.069
10865W        W 2789   7.266  25.233  53.358
10866W        W 2790  14.757  37.207  50.588
10867W        W 2791  18.750  20.246  50.592
10868W        W 2792   1.769  47.221  50.137
10869W        W 2793   2.248  33.706  50.607
10870W        W 2794  36.194  15.226  49.688
10871W        W 2795  10.753  21.733  53.802
10872W        W 2796   6.763  30.210  51.071
10873W        W 2797  44.224   7.758  52.904
10874W        W 2798  25.726  28.219  49.701
10875W        W 2799   4.777   7.240  53.794
10876W        W 2800  19.254  16.230  51.507
10877W        W 2801   9.760  23.228  50.594
10878W        W 2802   1.797  40.707  51.053
10879W        W 2803  40.185   6.257  49.675
10880W        W 2804  29.723  11.768  52.873
10881W        W 2805  20.225  10.771  51.951
10882W        W 2806  15.251  16.251  53.348
10883W        W 2807  27.218  35.721  51.965
10884W        W 2808  32.217  40.700  53.328
10885W        W 2809  39.208  45.704  51.035
10886W        W 2810  27.705  17.253  52.411
10887W        W 2811  33.729  11.247  50.134
10888W        W 2812  44.723  46.224  49.680
10889W        W 2813  36.195  16.254  51.525
10890W        W 2814  46.184  18.763  51.072
10891W        W 2815   2.763  26.755  51.953
10892W        W 2816  16.767  28.746  52.882
10893W        W 2817  10.273  32.739  52.424
10894W        W 2818  14.230   4.284  51.980
10895W        W 2819  28.237   4.754  51.045
10896W        W 2820  29.742  25.216  53.335
10897W        W 2821  31.240  18.226  50.153
10898W        W 2822   1.788  33.222  51.053
10899W        W 2823  10.278  30.746  50.590
10900W        W 2824  15.772   4.269  52.447
10901W        W 2825  21.244  21.265  50.139
10902W        W 2826  21.750  46.206  50.587
10903W        W 2827  31.699   5.753  51.531
10904W        W 2828  21.246  38.701  52.416
10905W        W 2829  40.224  17.770  51.988
10906W        W 2830  32.240  13.260  53.324
10907W        W 2831  37.697  46.709  51.974
10908W        W 2832  24.730  24.249  50.123
10909W        W 2833  41.197  46.688  51.958
10910W        W 2834  47.205   1.779  49.703
10911W        W 2835   2.766   7.271  52.447
10912W        W 2836  32.711  41.710  50.614
10913W        W 2837  18.250  36.724  52.424
10914W        W 2838  14.250   7.739  50.150
10915W        W 2839  15.758  12.762  53.346
10916W        W 2840   1.782  31.716  49.691
10917W        W 2841  19.766  45.178  53.774
10918W        W 2842  43.713  33.698  53.347
10919W        W 2843   5.284   1.771  50.125
10920W        W 2844  31.730  22.217  49.690
10921W        W 2845  14.743   6.252  50.135
10922W        W 2846   6.760  21.738  51.518
10923W        W 2847  12.771  24.259  49.706
10924W        W 2848   7.786  40.691  51.975
10925W        W 2849  43.692  17.741  52.409
10926W        W 2850  39.698   8.769  50.603
10927W        W 2851   2.252   8.268  51.056
10928W        W 2852  43.701   4.780  52.898
10929W        W 2853  42.202  32.729  50.137
10930W        W 2854  28.248   6.777  50.133
10931W        W 2855  45.207  22.223  53.356
10932W        W 2856  41.223  19.724  53.348
10933W        W 2857  34.742  27.736  50.149
10934W        W 2858  28.746  40.195  51.047
10935W        W 2859  16.730  45.697  51.986
10936W        W 2860  44.185  22.218  49.676
10937W        W 2861  27.719  37.714  49.705
10938W        W 2862  18.225  37.237  52.860
10939W        W 2863  28.728  23.252  53.342
10940W        W 2864   4.276  27.747  52.427
10941W        W 2865  20.722  29.744  51.074
10942W        W 2866  23.720   2.781  53.324
10943W        W 2867   2.773  40.713  50.615
10944W        W 2868  16.243  30.230  50.152
10945W        W 2869  11.271   1.282  51.048
10946W        W 2870  36.690  28.223  53.783
10947W        W 2871  35.196  47.210  50.132
10948W        W 2872  38.723   8.740  52.884
10949W        W 2873  48.185  12.775  53.802
10950W        W 2874   7.751   1.271  50.153
10951W        W 2875  40.214  12.775  50.125
10952W        W 2876  15.248   9.770  51.529
10953W        W 2877  32.735  38.702  50.583
10954W        W 2878  14.263  48.174  49.690
10955W        W 2879   3.746  10.737  50.153
10956W        W 2880  14.241  27.754  49.705
10957W        W 2881  26.249  38.711  50.616
10958W        W 2882  31.214  35.224  53.812
10959W        W 2883  21.265  21.741  50.124
10960W        W 2884  20.750  12.231  51.512
10961W        W 2885  34.226  27.727  50.146
10962W        W 2886  48.182  30.700  49.677
10963W        W 2887  38.719  37.702  49.693
10964W        W 2888  37.198  41.190  53.343
10965W        W 2889  23.731  19.767  53.340
10966W        W 2890  12.740  32.231  52.424
10967W        W 2891  40.229  14.741  49.688
10968W        W 2892   9.777   6.265  53.808
10969W        W 2893  36.226  36.212  52.882
10970W        W 2894  16.762  11.774  52.412
10971W        W 2895  45.712  26.737  52.878
10972W        W 2896  34.717  37.700  50.617
10973W        W 2897  36.715  18.747  52.426
10974W        W 2898  20.742  40.197  50.129
10975W        W 2899  38.236  19.247  51.076
10976W        W 2900   5.789  15.247  49.706
10977W        W 2901  44.178  40.691  51.063
10978W        W 2902  16.762  11.758  51.529
10979W        W 2903  19.264  42.719  53.336
10980W        W 2904   9.277  47.220  50.614
10981W        W 2905   1.284  22.734  53.814
10982W        W 2906  27.718  30.726  50.586
10983W        W 2907  42.714  36.729  52.415
10984W        W 2908  38.716  42.185  50.613
10985W        W 2909  30.709  10.263  53.801
10986W        W 2910  17.728  11.743  51.044
10987W        W 2911  17.765  34.737  50.588
10988W        W 2912   7.787   5.268  51.970
10989W        W 2913  36.239  38.722  52.863
10990W        W 2914   3.291  39.712  51.516
10991W        W 2915  23.755  29.248  52.415
10992W        W 2916  10.276  47.694  51.063
10993W        W 2917  24.218  46.691  51.064
10994W        W 2918  37.723   7.762  51.974
10995W        W 2919  38.707   2.780  51.990
10996W        W 2920   5.259  10.779  52.899
10997W        W 2921  36.226  18.740  52.876
10998W        W 2922   0.274  41.719  50.603
10999W        W 2923  41.714  39.729  50.577
11000W        W 2924  21.755  11.244  53.332
11001W        W 2925  13.276   8.269  50.136
11002W        W 2926  14.765  15.269  50.159
11003W        W 2927  13.757  16.761  50.593
11004W        W 2928   1.759   9.765  51.978
11005W        W 2929   9.255  20.255  52.409
11006W        W 2930  32.233   6.266  51.535
11007W        W 2931   0.270  16.268  51.051
11008W        W 2932   7.256  22.247  51.046
11009W        W 2933  33.697  16.237  51.503
11010W        W 2934  10.774  38.693  52.445
11011W        W 2935  29.214   5.760  52.415
11012W        W 2936  22.757   7.278  52.889
11013W        W 2937  33.729   1.263  50.584
11014W        W 2938  35.712  29.716  50.130
11015W        W 2939  46.719   5.249  52.420
11016W        W 2940   3.293  27.243  52.871
11017W        W 2941   4.784   3.279  49.671
11018W        W 2942   5.752  13.744  51.070
11019W        W 2943  19.756   2.266  51.988
11020W        W 2944  23.241  20.251  53.350
11021W        W 2945  45.208   4.792  52.861
11022W        W 2946  44.726  10.260  50.589
11023W        W 2947  12.248  10.266  52.406
11024W        W 2948  28.253  16.231  51.510
11025W        W 2949  43.711  14.237  51.972
11026W        W 2950  34.222  44.711  51.055
11027W        W 2951  14.258  39.706  51.507
11028W        W 2952  43.708  43.694  50.607
11029W        W 2953  19.266  14.726  51.953
11030W        W 2954  16.266  10.265  51.515
11031W        W 2955  27.231  26.252  53.327
11032W        W 2956  16.727  23.259  50.142
11033W        W 2957  42.206  44.203  51.042
11034W        W 2958  20.736  26.733  49.681
11035W        W 2959  41.230  43.201  50.610
11036W        W 2960  29.207  30.226  50.583
11037W        W 2961  14.747  25.209  52.403
11038W        W 2962  41.709   1.293  51.964
11039W        W 2963  27.740  14.250  51.529
11040W        W 2964  42.690  14.265  50.128
11041W        W 2965  17.728  37.223  53.803
11042W        W 2966  15.770  47.213  53.791
11043W        W 2967  15.753  29.241  51.967
11044W        W 2968  13.240  45.180  50.130
11045W        W 2969   1.755   2.787  51.534
11046W        W 2970  37.725  16.735  52.891
11047W        W 2971   0.270  29.714  51.037
11048W        W 2972  24.748  14.752  49.665
11049W        W 2973  21.251  46.193  50.621
11050W        W 2974  26.733   8.772  50.166
11051W        W 2975  39.191  11.234  51.520
11052W        W 2976  18.238  40.729  52.869
11053W        W 2977  15.257  44.690  50.578
11054W        W 2978   1.768   7.243  53.329
11055W        W 2979  26.215  28.242  49.708
11056W        W 2980  22.718   5.261  52.440
11057W        W 2981  36.710  30.706  50.157
11058W        W 2982   5.778  42.711  50.605
11059W        W 2983  35.234  14.745  50.162
11060W        W 2984   6.250   8.781  52.891
11061W        W 2985  10.758  40.229  50.139
11062W        W 2986  16.732  16.270  50.596
11063W        W 2987  19.762   2.289  52.409
11064W        W 2988   0.252  18.251  52.434
11065W        W 2989  29.728  22.761  50.592
11066W        W 2990  10.751  23.233  53.336
11067W        W 2991  35.223  26.755  51.964
11068W        W 2992  40.233  35.720  51.527
11069W        W 2993   8.743  27.210  51.974
11070W        W 2994  46.691  48.170  52.441
11071W        W 2995   2.278  14.751  52.410
11072W        W 2996  39.726  21.749  51.509
11073W        W 2997  14.730  40.211  51.492
11074W        W 2998  43.208   4.251  51.075
11075W        W 2999  25.256  20.753  51.530
11076W        W 3000  14.268  39.686  53.320
11077W        W 3001  35.215  13.764  52.416
11078W        W 3002  32.203  28.711  52.436
11079W        W 3003  17.768  35.729  50.619
11080W        W 3004  15.247  34.223  51.982
11081W        W 3005  29.205   9.755  52.406
11082W        W 3006  12.248   2.780  49.671
11083W        W 3007  30.747  32.724  52.444
11084W        W 3008  15.257   7.785  51.051
11085W        W 3009   6.280  23.723  53.357
11086W        W 3010  35.227   2.771  52.894
11087W        W 3011  34.241   7.755  51.509
11088W        W 3012  10.265  22.245  51.951
11089W        W 3013  17.731  45.206  49.690
11090W        W 3014  41.689  24.211  50.140
11091W        W 3015  31.703  12.268  51.516
11092W        W 3016  29.715  31.702  53.332
11093W        W 3017   9.241   2.252  53.792
11094W        W 3018  10.740  25.239  53.779
11095W        W 3019  16.272  43.723  51.044
11096W        W 3020  26.253  19.262  50.581
11097W        W 3021   6.287   8.761  51.972
11098W        W 3022  29.733  26.710  51.987
11099W        W 3023  33.195  11.748  53.792
11100W        W 3024  18.225  37.220  49.669
11101W        W 3025   4.287  23.732  52.448
11102W        W 3026  25.732  42.694  52.447
11103W        W 3027  47.716   1.265  53.340
11104W        W 3028  20.253  46.687  51.516
11105W        W 3029  21.714  41.684  51.979
11106W        W 3030  15.271  27.220  50.595
11107W        W 3031  22.232  21.258  50.578
11108W        W 3032  44.207   5.286  50.612
11109W        W 3033  31.207  46.710  51.049
11110W        W 3034  18.720   1.795  51.977
11111W        W 3035  28.732  33.726  52.422
11112W        W 3036  45.720  10.242  50.600
11113W        W 3037  24.748  35.223  51.947
11114W        W 3038  41.724  30.730  52.437
11115W        W 3039  20.729  46.676  53.318
11116W        W 3040   6.254  32.221  51.526
11117W        W 3041  37.705  16.749  53.350
11118W        W 3042   3.755  22.751  51.503
11119W        W 3043  33.715   4.267  52.900
11120W        W 3044   5.756   9.780  50.591
11121W        W 3045   1.774  13.761  53.332
11122W        W 3046  43.725  16.250  53.797
11123W        W 3047  13.249  20.225  53.329
11124W        W 3048  10.764   6.289  51.520
11125W        W 3049  20.241  34.703  53.793
11126W        W 3050  27.711  35.222  53.360
11127W        W 3051   0.273  10.268  52.410
11128W        W 3052  19.759   1.295  51.060
11129W        W 3053   6.264  38.730  52.891
11130W        W 3054  18.737  45.204  49.710
11131W        W 3055   6.772  12.737  51.531
11132W        W 3056   4.790   3.260  52.891
11133W        W 3057  32.216   0.252  51.037
11134W        W 3058  12.280  32.241  52.882
11135W        W 3059  14.750  24.251  53.351
11136W        W 3060   6.277  44.718  52.416
11137W        W 3061  37.215  39.712  51.494
11138W        W 3062  38.211  15.743  51.500
11139W        W 3063  46.718  18.726  51.054
11140W        W 3064   9.735   4.287  49.686
11141W        W 3065  18.733  29.216  52.904
11142W        W 3066   1.789  43.682  52.448
11143W        W 3067  15.241  18.726  51.971
11144W        W 3068   9.269  29.209  51.072
11145W        W 3069   3.784  29.231  52.444
11146W        W 3070  34.705  36.736  51.056
11147W        W 3071   3.780   0.273  53.815
11148W        W 3072  21.229   8.245  52.889
11149W        W 3073  27.751  40.216  53.814
11150W        W 3074  25.248   5.266  49.665
11151W        W 3075   9.737  34.226  51.039
11152W        W 3076   2.768  20.718  50.596
11153W        W 3077  34.221  23.741  51.524
11154W        W 3078  41.184  26.753  51.498
11155W        W 3079   8.247  24.757  52.894
11156W        W 3080   0.299   0.798  51.498
11157W        W 3081  30.230  47.700  50.151
11158W        W 3082  22.234  16.730  50.160
11159W        W 3083  21.731   4.281  50.140
11160W        W 3084  44.213   7.239  49.670
11161W        W 3085  31.739   5.289  50.615
11162W        W 3086  38.234  40.202  53.783
11163W        W 3087   4.243   7.759  49.666
11164W        W 3088  24.219   7.774  52.403
11165W        W 3089   8.765   3.254  49.704
11166W        W 3090  37.727   3.786  53.353
11167W        W 3091  28.745   2.272  50.578
11168W        W 3092  28.214  48.200  51.520
11169W        W 3093  22.222   4.762  51.042
11170W        W 3094  14.254  14.769  52.895
11171W        W 3095  24.254  41.683  50.141
11172W        W 3096   6.242  38.201  53.361
11173W        W 3097  41.730  20.240  51.949
11174W        W 3098  21.723  16.247  53.780
11175W        W 3099  43.707  35.209  49.696
11176W        W 3100   7.747   2.765  51.052
11177W        W 3101  15.774   9.766  50.580
11178W        W 3102  43.690  43.192  52.423
11179W        W 3103  26.723  42.190  49.689
11180W        W 3104  47.695  26.718  49.667
11181W        W 3105   7.270  12.244  50.162
11182W        W 3106  13.271  35.698  52.866
11183W        W 3107  33.204   9.252  50.614
11184W        W 3108   2.780  17.743  49.703
11185W        W 3109  38.227  41.221  53.325
11186W        W 3110  18.238  22.735  53.329
11187W        W 3111  41.724  31.232  53.337
11188W        W 3112  34.715   2.757  50.589
11189W        W 3113   2.765  23.255  50.128
11190W        W 3114  42.715  43.192  53.810
11191W        W 3115  33.740  45.709  49.676
11192W        W 3116  10.258  47.218  52.436
11193W        W 3117  40.205  28.221  51.947
11194W        W 3118  29.245  23.754  53.331
11195W        W 3119   3.779  17.266  52.861
11196W        W 3120  47.179  12.270  51.055
11197W        W 3121  35.696  14.260  52.870
11198W        W 3122  32.733  15.735  51.985
11199W        W 3123  41.710  35.723  51.048
11200W        W 3124  15.771  17.269  51.498
11201W        W 3125   9.235  12.744  51.518
11202W        W 3126  19.752  39.685  53.323
11203W        W 3127  37.229  20.725  49.704
11204W        W 3128  41.212  46.695  53.786
11205W        W 3129  25.247  25.219  53.347
11206W        W 3130  16.760  43.191  49.673
11207W        W 3131  45.210  12.740  51.973
11208W        W 3132  33.206  39.198  51.494
11209W        W 3133  30.735  13.252  51.985
11210W        W 3134  20.265  18.252  51.504
11211W        W 3135  19.225   4.291  51.071
11212W        W 3136  14.737  26.216  51.989
11213W        W 3137   3.774   2.791  51.038
11214W        W 3138  27.230   7.773  53.322
11215W        W 3139  17.252   2.268  52.404
11216W        W 3140   8.253  14.771  49.686
11217W        W 3141  46.689  37.710  50.132
11218W        W 3142  10.733   6.280  51.063
11219W        W 3143  27.730   7.253  52.422
11220W        W 3144   7.269  27.241  49.697
11221W        W 3145   7.250   3.293  53.333
11222W        W 3146   1.277   7.255  50.142
11223W        W 3147  40.730   5.255  51.053
11224W        W 3148  36.200  18.239  51.517
11225W        W 3149  28.726  31.731  49.702
11226W        W 3150  46.218  21.254  51.965
11227W        W 3151   9.254  28.707  51.533
11228W        W 3152  32.737  37.219  51.948
11229W        W 3153  28.222  25.255  50.618
11230W        W 3154  27.706  15.771  51.042
11231W        W 3155  28.721  26.722  50.622
11232W        W 3156  13.274  20.737  50.589
11233W        W 3157  14.227   4.271  49.678
11234W        W 3158  42.193  34.729  50.147
11235W        W 3159  13.742  45.198  52.425
11236W        W 3160  10.733  41.212  53.785
11237W        W 3161  45.206   9.251  53.347
11238W        W 3162  44.703  30.230  51.038
11239W        W 3163  43.180  27.721  51.078
11240W        W 3164  38.204   9.255  50.125
11241W        W 3165  36.210  14.766  50.151
11242W        W 3166   4.772  45.190  51.047
11243W        W 3167   8.743  30.210  51.968
11244W        W 3168  19.246  10.766  50.126
11245W        W 3169   7.268  30.206  53.337
11246W        W 3170  17.230  29.729  51.511
11247W        W 3171  46.207  10.767  51.043
11248W        W 3172   9.248  20.723  53.322
11249W        W 3173   0.771  40.188  53.341
11250W        W 3174  10.755   7.744  51.535
11251W        W 3175  42.201  34.216  53.352
11252W        W 3176  14.726  21.258  51.989
11253W        W 3177  29.723  24.247  51.073
11254W        W 3178  35.702  28.728  50.582
11255W        W 3179  13.765  16.745  51.511
11256W        W 3180  19.261  43.715  49.688
11257W        W 3181  40.215   7.244  51.522
11258W        W 3182   5.772  42.187  50.164
11259W        W 3183  44.179  18.258  52.865
11260W        W 3184  10.771  23.740  51.963
11261W        W 3185  44.703   8.744  50.128
11262W        W 3186  38.698  41.206  51.950
11263W        W 3187  42.212   0.260  49.687
11264W        W 3188  22.723   4.790  51.046
11265W        W 3189  27.727  35.718  50.137
11266W        W 3190  27.732  43.191  52.404
11267W        W 3191  28.707  23.712  53.790
11268W        W 3192  11.262  10.775  50.148
11269W        W 3193  20.720  39.190  49.670
11270W        W 3194   7.773  19.725  52.886
11271W        W 3195   2.250  36.733  49.697
11272W        W 3196  17.759  39.692  50.166
11273W        W 3197  17.264  36.210  50.139
11274W        W 3198  41.187  36.710  52.426
11275W        W 3199   3.288  18.756  53.797
11276W        W 3200  21.248   3.790  53.330
11277W        W 3201  20.737  42.718  52.414
11278W        W 3202   6.266  24.243  51.072
11279W        W 3203   1.292  15.748  53.339
11280W        W 3204  24.747   1.272  51.984
11281W        W 3205  16.766  12.271  53.796
11282W        W 3206   3.748  44.709  51.497
11283W        W 3207  44.687  27.745  51.493
11284W        W 3208  15.251  14.269  49.664
11285W        W 3209  41.205   7.763  52.873
11286W        W 3210  46.676   5.278  53.774
11287W        W 3211  16.229  24.237  52.864
11288W        W 3212   0.798  17.227  52.425
11289W        W 3213  20.246   6.771  51.040
11290W        W 3214   2.775  17.751  50.616
11291W        W 3215   1.793  32.713  53.347
11292W        W 3216  29.233  35.205  50.132
11293W        W 3217  31.742   5.772  52.445
11294W        W 3218  20.735  48.206  49.691
11295W        W 3219   1.758  32.246  53.773
11296W        W 3220  14.773  38.195  49.675
11297W        W 3221  19.724   3.746  51.982
11298W        W 3222  41.726  41.193  51.040
11299W        W 3223  43.698  45.705  51.985
11300W        W 3224  40.687  16.765  52.442
11301W        W 3225   8.775  46.716  53.358
11302W        W 3226  17.233   4.754  51.067
11303W        W 3227  13.252  25.755  53.352
11304W        W 3228  35.194  46.681  52.442
11305W        W 3229   4.751  29.711  50.607
11306W        W 3230   8.237  22.713  53.772
11307W        W 3231  20.244   9.257  53.320
11308W        W 3232   8.252   8.737  53.793
11309W        W 3233  31.217  24.726  51.046
11310W        W 3234  21.221  22.239  51.971
11311W        W 3235  47.704  28.241  51.040
11312W        W 3236  47.716  46.175  51.064
11313W        W 3237  15.226  44.708  53.809
11314W        W 3238  41.199  31.226  51.046
11315W        W 3239  46.706  27.240  53.785
11316W        W 3240  27.747  40.714  50.613
11317W        W 3241   2.775  14.758  52.890
11318W        W 3242  14.265  26.740  50.122
11319W        W 3243   2.767  32.229  51.497
11320W        W 3244  37.723  38.723  53.774
11321W        W 3245  15.271  37.691  51.515
11322W        W 3246  21.737  46.190  51.054
11323W        W 3247  15.774  29.237  49.674
11324W        W 3248   8.774  42.724  50.137
11325W        W 3249  32.715  10.777  53.807
11326W        W 3250  10.738  23.742  52.892
11327W        W 3251   4.786  19.257  50.164
11328W        W 3252   5.781  47.672  50.597
11329W        W 3253  23.230  43.181  50.154
11330W        W 3254  40.219  11.253  51.038
11331W        W 3255   2.790  30.245  53.807
11332W        W 3256   5.261  25.218  52.879
11333W        W 3257  28.749  46.201  52.863
11334W        W 3258  16.756  20.750  52.437
11335W        W 3259  35.216  41.715  52.434
11336W        W 3260  41.226  29.724  52.891
11337W        W 3261   7.277  23.243  50.146
11338W        W 3262  33.220  11.263  53.788
11339W        W 3263   5.782  22.753  50.598
11340W        W 3264  32.215  36.731  52.429
11341W        W 3265  17.253  36.722  52.430
11342W        W 3266  41.198  10.773  51.978
11343W        W 3267  20.242  11.236  53.779
11344W        W 3268  16.252  15.262  53.350
11345W        W 3269  27.253  46.687  51.043
11346W        W 3270   9.760  32.223  50.588
11347W        W 3271  45.199   5.269  51.986
11348W        W 3272  31.730  43.717  52.411
11349W        W 3273   1.762  45.222  52.441
11350W        W 3274  17.256   5.284  53.807
11351W        W 3275   1.786  19.231  53.330
11352W        W 3276   0.795   8.739  53.357
11353W        W 3277  27.205   3.783  52.410
11354W        W 3278   1.262   2.777  53.319
11355W        W 3279  17.265  14.759  52.403
11356W        W 3280  43.701  25.234  51.522
11357W        W 3281  32.204  45.221  50.147
11358W        W 3282   5.249  45.711  49.693
11359W        W 3283  10.741   7.784  53.329
11360W        W 3284  24.754  27.730  53.331
11361W        W 3285  22.228  47.711  50.160
11362W        W 3286  10.235   1.272  50.152
11363W        W 3287  18.260   2.767  50.589
11364W        W 3288  31.210  13.764  50.132
11365W        W 3289   0.252  26.250  50.587
11366W        W 3290   0.253  18.720  51.034
11367W        W 3291  20.229  27.255  50.591
11368W        W 3292  23.728  13.266  51.986
11369W        W 3293   4.249  10.246  53.798
11370W        W 3294  28.238  13.754  53.328
11371W        W 3295  45.701  48.208  49.702
11372W        W 3296  42.214   7.770  51.492
11373W        W 3297  45.186  16.241  49.708
11374W        W 3298  11.749  46.701  52.420
11375W        W 3299  11.244   0.756  49.682
11376W        W 3300   3.785  24.733  52.883
11377W        W 3301  12.734  14.737  52.426
11378W        W 3302  15.268  24.712  51.495
11379W        W 3303  26.230  15.252  52.444
11380W        W 3304  39.709  32.212  51.041
11381W        W 3305   7.248  40.189  52.422
11382W        W 3306  41.186  35.201  52.442
11383W        W 3307  31.709   9.244  51.040
11384W        W 3308  15.771  37.721  53.781
11385W        W 3309   4.245  41.698  52.443
11386W        W 3310   4.744  32.711  53.773
11387W        W 3311   6.282  16.245  50.163
11388W        W 3312   7.283  39.232  52.900
11389W        W 3313  19.755  35.702  50.126
11390W        W 3314  31.223  45.190  50.132
11391W        W 3315  27.220  15.773  52.425
11392W        W 3316   1.787  32.731  53.785
11393W        W 3317  24.247  43.710  50.598
11394W        W 3318  29.720   2.754  53.805
11395W        W 3319   8.246  44.698  51.989
11396W        W 3320  10.768  34.243  51.043
11397W        W 3321  15.736   2.285  53.341
11398W        W 3322  25.241   5.271  52.412
11399W        W 3323  37.727  18.263  49.699
11400W        W 3324   2.776  26.229  52.896
11401W        W 3325   1.768   3.789  50.603
11402W        W 3326  33.723  18.765  53.774
11403W        W 3327   9.764  41.205  52.901
11404W        W 3328  38.715   8.245  51.522
11405W        W 3329  38.699   4.762  51.075
11406W        W 3330   2.761  43.193  53.810
11407W        W 3331  23.253   7.266  52.412
11408W        W 3332   8.751   2.252  52.406
11409W        W 3333  47.179  24.742  52.415
11410W        W 3334  46.681   4.780  53.790
11411W        W 3335  35.201  23.741  53.322
11412W        W 3336  40.203  20.257  53.814
11413W        W 3337  11.758  22.725  51.504
11414W        W 3338  16.236  13.262  50.603
11415W        W 3339   3.260  30.247  49.685
11416W        W 3340  19.734  43.701  51.076
11417W        W 3341  36.738  26.244  50.156
11418W        W 3342  19.730  42.196  52.418
11419W        W 3343  38.711   8.780  51.075
11420W        W 3344  26.735   6.240  53.796
11421W        W 3345  11.253   0.251  51.953
11422W        W 3346  35.721  35.694  53.773
11423W        W 3347  38.732  29.239  50.149
11424W        W 3348  25.749  15.774  51.981
11425W        W 3349  12.756  15.750  53.773
11426W        W 3350  47.191  41.226  51.074
11427W        W 3351  39.718  45.198  50.156
11428W        W 3352  21.233   7.246  52.432
11429W        W 3353  47.201  47.173  52.901
11430W        W 3354  28.747  15.225  50.618
11431W        W 3355  38.721   2.771  53.324
11432W        W 3356   1.280   3.288  49.677
11433W        W 3357  14.246  34.715  53.775
11434W        W 3358  14.747   3.746  51.073
11435W        W 3359   1.276  20.257  53.817
11436W        W 3360  11.740   0.284  51.044
11437W        W 3361  34.699  39.208  49.692
11438W        W 3362   3.793  44.190  50.603
11439W        W 3363  28.743  20.727  53.343
11440W        W 3364  11.278   7.243  51.511
11441W        W 3365  42.711  46.223  51.989
11442W        W 3366   7.767  14.272  53.333
11443W        W 3367   9.269  12.253  50.124
11444W        W 3368  37.726  14.745  52.899
11445W        W 3369  11.278  41.716  53.816
11446W        W 3370   1.251  25.230  51.983
11447W        W 3371  13.769   4.789  53.814
11448W        W 3372  28.208  39.210  52.866
11449W        W 3373  48.179  32.740  50.622
11450W        W 3374  39.227  46.713  49.691
11451W        W 3375  14.241  43.723  51.053
11452W        W 3376  34.198   3.284  51.984
11453W        W 3377  47.688  30.720  51.504
11454W        W 3378   3.783   2.294  52.434
11455W        W 3379  30.240  45.712  53.787
11456W        W 3380  12.747   1.276  52.415
11457W        W 3381   7.285   9.256  51.498
11458W        W 3382   6.264  36.232  51.961
11459W        W 3383  42.198  46.190  51.059
11460W        W 3384   6.274  32.231  52.411
11461W        W 3385  47.696  20.257  50.135
11462W        W 3386  25.212  31.218  50.145
11463W        W 3387  21.223  12.238  50.136
11464W        W 3388  10.765  33.213  53.794
11465W        W 3389  32.216  35.228  51.952
11466W        W 3390   6.766  18.733  53.348
11467W        W 3391   4.257  41.182  51.061
11468W        W 3392  36.728  21.733  53.775
11469W        W 3393  44.712  46.716  51.517
11470W        W 3394  32.726  20.232  49.682
11471W        W 3395   7.288  15.251  52.421
11472W        W 3396   0.749  47.718  51.499
11473W        W 3397  14.758  33.210  53.317
11474W        W 3398   2.252  29.230  50.150
11475W        W 3399  37.217   6.758  52.414
11476W        W 3400  38.191  16.242  51.977
11477W        W 3401  25.741  46.704  49.678
11478W        W 3402  36.218   6.285  51.967
11479W        W 3403  10.261   9.746  52.879
11480W        W 3404   1.254  46.698  50.160
11481W        W 3405  45.219   6.267  50.595
11482W        W 3406  12.751   5.778  49.682
11483W        W 3407  38.690  29.719  50.126
11484W        W 3408  13.247   5.760  52.865
11485W        W 3409  15.735   5.773  51.976
11486W        W 3410  21.739   3.774  51.065
11487W        W 3411  44.682   6.776  50.581
11488W        W 3412  34.705  10.756  50.592
11489W        W 3413  40.729  34.200  53.342
11490W        W 3414   7.262   2.273  49.673
11491W        W 3415  46.710  28.211  49.687
11492W        W 3416  22.743   5.772  50.162
11493W        W 3417  14.259  10.745  53.807
11494W        W 3418  44.209  20.242  53.343
11495W        W 3419  25.724  30.229  50.619
11496W        W 3420  17.759  25.742  52.415
11497W        W 3421  17.251  16.261  51.526
11498W        W 3422  44.191  42.187  51.979
11499W        W 3423  23.756  29.718  51.511
11500W        W 3424   3.776  31.233  52.888
11501W        W 3425  46.174  43.687  51.497
11502W        W 3426  28.218  35.692  51.071
11503W        W 3427  44.680  30.747  49.668
11504W        W 3428   3.248  46.190  50.596
11505W        W 3429  15.768  17.237  50.137
11506W        W 3430  34.719   7.260  52.868
11507W        W 3431  22.246  27.751  53.320
11508W        W 3432  46.674  34.208  50.603
11509W        W 3433  43.724  45.720  52.900
11510W        W 3434  44.724  41.187  51.037
11511W        W 3435   7.757  26.721  52.884
11512W        W 3436   1.255  12.235  52.859
11513W        W 3437   4.285   4.779  52.890
11514W        W 3438  20.221  12.774  50.579
11515W        W 3439  48.183   3.770  51.066
11516W        W 3440  44.684  45.184  50.150
11517W        W 3441  30.723  26.248  52.886
11518W        W 3442  47.204  44.681  50.143
11519W        W 3443  25.727  18.768  50.595
11520W        W 3444  13.758  43.201  53.789
11521W        W 3445  19.219  39.712  52.446
11522W        W 3446  12.262  32.239  51.962
11523W        W 3447  14.235  34.201  51.499
11524W        W 3448  14.269  29.706  49.698
11525W        W 3449  15.239   1.275  49.671
11526W        W 3450  17.757  30.742  53.789
11527W        W 3451  38.703  29.209  53.320
11528W        W 3452  21.255  46.689  49.691
11529W        W 3453  37.706  14.262  52.869
11530W        W 3454  32.227  13.748  53.813
11531W        W 3455  16.756  44.696  51.065
11532W        W 3456   0.256  44.210  50.595
11533W        W 3457  40.218   1.255  53.797
11534W        W 3458  44.716  36.239  49.665
11535W        W 3459   0.763  16.732  50.585
11536W        W 3460  12.748  38.206  50.149
11537W        W 3461  40.218   6.275  52.427
11538W        W 3462  33.212  27.746  51.058
11539W        W 3463  13.733  42.181  51.519
11540W        W 3464  18.250  12.754  50.156
11541W        W 3465  44.219  48.198  51.951
11542W        W 3466   4.759  39.230  49.700
11543W        W 3467   5.776   8.753  53.787
11544W        W 3468  11.268  44.197  51.514
11545W        W 3469  42.721   3.754  52.879
11546W        W 3470  40.197  35.727  49.669
11547W        W 3471  38.719  34.741  53.779
11548W        W 3472  35.697  17.734  51.514
11549W        W 3473  45.710  45.699  50.590
11550W        W 3474   1.264   9.752  51.960
11551W        W 3475  44.721  12.762  50.583
11552W        W 3476   7.782  13.728  49.700
11553W        W 3477  30.728  21.236  49.665
11554W        W 3478  30.250   3.249  49.664
11555W        W 3479  38.227   4.288  50.143
11556W        W 3480  11.764   5.763  53.343
11557W        W 3481   5.748   0.284  50.607
11558W        W 3482   3.779  40.226  52.869
11559W        W 3483  35.213  20.725  53.358
11560W        W 3484  43.679   3.284  53.801
11561W        W 3485  11.756   3.260  53.358
11562W        W 3486  44.683  44.690  53.817
11563W        W 3487   5.252  24.720  51.969
11564W        W 3488  42.230  10.777  50.597
11565W        W 3489   1.791  29.232  50.153
11566W        W 3490  12.738  26.708  51.047
11567W        W 3491   6.758  41.232  50.598
11568W        W 3492  23.757  43.206  52.437
11569W        W 3493  31.246  36.722  53.325
11570W        W 3494  37.698   0.794  51.967
11571W        W 3495   8.280   0.253  51.035
11572W        W 3496  17.244  26.227  52.879
11573W        W 3497   3.777  30.220  51.057
11574W        W 3498  14.266   7.281  53.798
11575W        W 3499  36.710  32.245  50.612
11576W        W 3500  16.729   0.288  49.685
11577W        W 3501  18.259  12.776  50.605
11578W        W 3502   2.747  10.782  53.355
11579W        W 3503   2.253   2.265  50.606
11580W        W 3504  18.758  41.717  53.809
11581W        W 3505  13.766   0.270  51.050
11582W        W 3506  47.698   1.288  51.970
11583W        W 3507  39.227  28.744  50.617
11584W        W 3508  38.729   1.765  51.072
11585W        W 3509  39.224  28.213  53.808
11586W        W 3510  17.749  13.269  52.429
11587W        W 3511  16.729  18.766  51.519
11588W        W 3512   6.250  44.216  49.670
11589W        W 3513  31.228  42.228  53.791
11590W        W 3514   4.289  12.732  51.532
11591W        W 3515  19.726   4.744  51.495
11592W        W 3516   2.273  10.764  52.860
11593W        W 3517  41.706  14.749  51.972
11594W        W 3518   1.782  27.212  50.154
11595W        W 3519  14.736   2.790  51.967
11596W        W 3520  34.722  12.731  53.353
11597W        W 3521   3.245  11.258  50.144
11598W        W 3522  20.230  22.729  53.805
11599W        W 3523  18.747   8.784  51.075
11600W        W 3524  26.250  33.726  53.360
11601W        W 3525  47.704  15.761  52.445
11602W        W 3526  46.694  47.177  53.804
11603W        W 3527  40.189  29.730  50.156
11604W        W 3528  44.692  31.237  49.679
11605W        W 3529  35.701  18.722  49.705
11606W        W 3530   9.758  31.745  53.350
11607W        W 3531  22.760   5.745  49.709
11608W        W 3532  16.728   2.760  51.078
11609W        W 3533   8.257   5.288  53.321
11610W        W 3534   3.254  38.211  52.437
11611W        W 3535   3.780  23.220  50.619
11612W        W 3536  22.243  25.219  51.972
11613W        W 3537   4.258  14.269  49.671
11614W        W 3538  31.243  43.709  52.885
11615W        W 3539  30.204  32.727  51.064
11616W        W 3540  12.745  12.774  52.447
11617W        W 3541  20.751  27.208  51.960
11618W        W 3542  36.239   4.285  52.867
11619W        W 3543  26.728  34.704  50.590
11620W        W 3544   9.270  41.727  53.784
11621W        W 3545  40.225  19.235  51.961
11622W        W 3546  18.738  39.214  50.124
11623W        W 3547  34.716   1.776  53.814
11624W        W 3548  43.229  23.261  51.496
11625W        W 3549  30.710  36.717  53.806
11626W        W 3550  42.229  39.210  53.779
11627W        W 3551  42.695  28.746  52.898
11628W        W 3552  29.202   6.742  50.144
11629W        W 3553  19.726  22.246  51.520
11630W        W 3554  40.713  10.758  51.072
11631W        W 3555  10.749  43.215  51.516
11632W        W 3556   5.759  24.248  50.598
11633W        W 3557  21.225  10.259  53.322
11634W        W 3558  37.691   6.757  53.326
11635W        W 3559  39.212  32.699  52.893
11636W        W 3560  18.768  42.193  51.948
11637W        W 3561  31.706  47.687  51.056
11638W        W 3562  16.740  46.706  49.698
11639W        W 3563  28.208   7.241  52.435
11640W        W 3564  14.758  38.206  51.505
11641W        W 3565  18.224  42.228  52.413
11642W        W 3566  22.753  43.218  51.518
11643W        W 3567  42.183  36.738  53.788
11644W        W 3568  11.742  36.194  53.813
11645W        W 3569  18.258  43.192  51.516
11646W        W 3570  11.734  10.774  51.040
11647W        W 3571  23.228   5.767  49.698
11648W        W 3572  32.719  35.723  49.692
11649W        W 3573  34.238   0.785  52.406
11650W        W 3574  38.714   4.759  52.403
11651W        W 3575   9.259  29.737  53.329
11652W        W 3576  13.275  19.725  53.784
11653W        W 3577  42.180  17.757  52.886
11654W        W 3578  45.222  24.237  51.043
11655W        W 3579  34.240  47.218  51.977
11656W        W 3580  43.216  31.740  53.349
11657W        W 3581  21.241  43.219  51.071
11658W        W 3582  41.697  15.266  50.127
11659W        W 3583  27.737   6.747  49.697
11660W        W 3584  35.224   9.240  51.063
11661W        W 3585  10.255   0.794  51.979
11662W        W 3586  33.235   2.772  53.349
11663W        W 3587  43.187   6.775  51.499
11664W        W 3588  15.273  22.257  53.774
11665W        W 3589   0.251   5.254  50.127
11666W        W 3590  46.201   8.241  52.895
11667W        W 3591  24.244  22.225  53.814
11668W        W 3592   6.272   0.259  50.595
11669W        W 3593  15.756  25.212  53.357
11670W        W 3594   9.775   4.249  51.967
11671W        W 3595  13.275  19.262  51.949
11672W        W 3596   9.279  30.741  53.354
11673W        W 3597  34.698  25.233  52.420
11674W        W 3598  31.228  38.706  53.325
11675W        W 3599  29.226  27.739  53.357
11676W        W 3600  26.215  35.695  52.422
11677W        W 3601  40.717  32.742  51.055
11678W        W 3602  22.745  45.682  51.075
11679W        W 3603  32.227   3.782  50.158
11680W        W 3604  12.273  27.240  51.050
11681W        W 3605  38.724   5.276  50.138
11682W        W 3606   4.750  12.232  49.688
11683W        W 3607  25.222   1.749  53.320
11684W        W 3608   6.283  17.243  53.330
11685W        W 3609  30.247  38.227  52.443
11686W        W 3610  22.715  42.689  51.960
11687W        W 3611  25.212  23.738  51.034
11688W        W 3612  37.234  37.215  51.976
11689W        W 3613  29.238   0.250  51.526
11690W        W 3614  13.261   9.269  53.778
11691W        W 3615   4.288  31.236  49.706
11692W        W 3616   3.765  44.217  49.684
11693W        W 3617  36.194  27.236  53.790
11694W        W 3618  42.681  47.186  53.807
11695W        W 3619   6.283  13.751  51.505
11696W        W 3620  20.222  48.214  51.526
11697W        W 3621  27.741  17.747  52.888
11698W        W 3622  39.222   0.283  53.811
11699W        W 3623   1.755  28.223  49.668
11700W        W 3624  11.763   7.784  50.603
11701W        W 3625  35.711  22.748  52.864
11702W        W 3626  12.734   7.247  50.589
11703W        W 3627  40.197  15.735  52.403
11704W        W 3628  37.191   4.780  53.815
11705W        W 3629  20.255  48.207  49.705
11706W        W 3630   6.244  17.736  49.689
11707W        W 3631  22.757   9.756  52.863
11708W        W 3632  36.228  31.714  52.895
11709W        W 3633  41.701  27.719  51.963
11710W        W 3634  35.229  37.717  51.526
11711W        W 3635  14.768  14.276  52.888
11712W        W 3636  40.690  15.766  53.345
11713W        W 3637  36.699  41.226  53.792
11714W        W 3638  27.710  44.700  51.961
11715W        W 3639  40.707  44.719  50.595
11716W        W 3640   0.299  21.228  52.407
11717W        W 3641  21.264  18.738  50.593
11718W        W 3642  30.727  28.213  53.327
11719W        W 3643  48.192   9.752  50.583
11720W        W 3644   1.781  26.748  53.348
11721W        W 3645  23.752  20.222  52.894
11722W        W 3646   9.242   3.776  52.873
11723W        W 3647  25.725   3.787  51.072
11724W        W 3648  26.215  20.252  53.795
11725W        W 3649  16.745  28.732  50.618
11726W        W 3650  23.719  16.765  50.603
11727W        W 3651   5.769  13.758  53.800
11728W        W 3652   2.269  46.216  51.964
11729W        W 3653   4.779  25.215  52.865
11730W        W 3654  36.210  19.260  49.691
11731W        W 3655  48.175   6.255  51.058
11732W        W 3656  25.744   1.271  49.680
11733W        W 3657  19.243  30.206  49.670
11734W        W 3658  42.183  33.242  49.705
11735W        W 3659  25.755  16.234  52.438
11736W        W 3660  21.717  19.744  52.444
11737W        W 3661  19.253  35.726  52.864
11738W        W 3662  18.746  42.194  51.491
11739W        W 3663  13.766  39.202  51.521
11740W        W 3664  13.245   5.758  53.348
11741W        W 3665  19.242  47.690  52.408
11742W        W 3666  23.746  40.696  50.605
11743W        W 3667  20.762   9.259  53.802
11744W        W 3668  35.733   1.781  53.316
11745W        W 3669  26.721   8.269  51.513
11746W        W 3670  39.707  26.215  51.051
11747W        W 3671  31.703  30.728  52.441
11748W        W 3672  28.251  12.241  51.045
11749W        W 3673  39.722   4.777  51.071
11750W        W 3674   3.260  33.711  50.600
11751W        W 3675  18.754  39.231  50.604
11752W        W 3676   7.240  28.215  51.039
11753W        W 3677   9.783   5.257  52.431
11754W        W 3678   2.270  19.737  52.444
11755W        W 3679  25.729  38.701  50.621
11756W        W 3680   0.278  30.724  52.902
11757W        W 3681   7.251  16.740  49.703
11758W        W 3682  36.196  44.193  50.144
11759W        W 3683   1.765   7.747  51.975
11760W        W 3684  14.750   9.282  51.992
11761W        W 3685  16.243  44.682  53.336
11762W        W 3686   2.793  40.709  49.677
11763W        W 3687   2.256  40.707  49.667
11764W        W 3688  28.736  28.709  51.956
11765W        W 3689  45.193  15.233  49.666
11766W        W 3690  41.700  28.240  51.974
11767W        W 3691  18.232  32.711  51.967
11768W        W 3692  47.683  37.200  52.898
11769W        W 3693  28.226   8.769  51.056
11770W        W 3694  35.712  22.720  50.130
11771W        W 3695   1.772  40.186  53.354
11772W        W 3696   9.779   2.768  49.683
11773W        W 3697  45.191  34.211  52.410
11774W        W 3698  37.203  33.723  52.409
11775W        W 3699  40.711  39.690  52.876
11776W        W 3700  23.726   9.266  53.809
11777W        W 3701   4.758  40.196  53.331
11778W        W 3702  45.224   0.255  51.990
11779W        W 3703  43.180   5.289  52.411
11780W        W 3704  39.201   9.752  51.499
11781W        W 3705  46.707  28.717  51.962
11782W        W 3706  40.714  25.739  49.702
11783W        W 3707  25.741  10.240  52.423
11784W        W 3708  33.722  24.242  51.067
11785W        W 3709  42.720  42.186  50.608
11786W        W 3710  30.248  28.221  49.676
11787W        W 3711  44.188  46.195  50.617
11788W        W 3712  32.225  14.238  50.588
11789W        W 3713   5.762  48.217  51.951
11790W        W 3714  14.749  41.691  52.424
11791W        W 3715   0.798  38.206  49.681
11792W        W 3716  46.218  14.749  50.129
11793W        W 3717   8.743  35.719  53.329
11794W        W 3718  27.216  46.703  51.958
11795W        W 3719  28.237   3.762  51.498
11796W        W 3720   7.279  17.733  53.342
11797W        W 3721  36.715  43.227  51.508
11798W        W 3722  13.746   1.256  51.070
11799W        W 3723  31.230   9.260  51.988
11800W        W 3724  31.704  11.747  52.424
11801W        W 3725  48.196  27.713  53.321
11802W        W 3726   5.280   7.277  52.440
11803W        W 3727  40.195  15.742  53.778
11804W        W 3728   7.282  47.197  51.986
11805W        W 3729   0.259  10.246  52.891
11806W        W 3730  10.762   7.277  52.885
11807W        W 3731   4.259  43.190  50.145
11808W        W 3732   6.258  33.743  52.899
11809W        W 3733  47.709  20.230  51.524
11810W        W 3734  33.703  22.717  52.895
11811W        W 3735  11.776  22.240  51.976
11812W        W 3736   0.286   3.783  51.054
11813W        W 3737  32.735  30.202  53.797
11814W        W 3738  35.720  39.724  51.506
11815W        W 3739   9.761  11.765  53.812
11816W        W 3740  39.217   3.768  50.618
11817W        W 3741  31.726  27.247  49.699
11818W        W 3742  43.702   7.241  51.046
11819W        W 3743   4.249  30.707  53.786
11820W        W 3744  14.749  13.750  51.972
11821W        W 3745  21.262  43.724  53.344
11822W        W 3746   3.274  36.727  50.621
11823W        W 3747   6.760  43.194  49.696
11824W        W 3748   6.748  38.716  51.979
11825W        W 3749  41.686  16.752  51.522
11826W        W 3750  43.225  16.764  53.334
11827W        W 3751  23.718  28.744  51.952
11828W        W 3752  41.192  42.715  52.876
11829W        W 3753  37.736  42.218  52.891
11830W        W 3754  36.717  11.275  52.898
11831W        W 3755  18.753  33.205  52.411
11832W        W 3756  20.250  17.736  52.863
11833W        W 3757  24.238   8.762  51.050
11834W        W 3758  18.722  10.254  52.876
11835W        W 3759   2.789  43.204  52.869
11836W        W 3760   2.778  13.745  52.874
11837W        W 3761   1.788   4.753  49.683
11838W        W 3762  43.715  46.215  51.069
11839W        W 3763   8.243  44.700  53.322
11840W        W 3764  23.228  45.715  52.898
11841W        W 3765   1.277  32.698  52.428
11842W        W 3766  45.180  19.222  50.589
11843W        W 3767  46.684  35.235  52.882
11844W        W 3768   2.296  13.732  52.432
11845W        W 3769  38.697  11.761  49.683
11846W        W 3770  21.741  23.242  51.069
11847W        W 3771   2.771  34.240  51.527
11848W        W 3772  19.767  35.702  51.515
11849W        W 3773  15.761  48.206  51.959
11850W        W 3774  27.252  34.740  50.150
11851W        W 3775  18.251  43.725  52.867
11852W        W 3776  45.180   4.254  51.991
11853W        W 3777  33.734  24.745  53.324
11854W        W 3778  32.718   3.790  51.952
11855W        W 3779  48.180  31.235  51.961
11856W        W 3780  26.251  17.259  52.426
11857W        W 3781  35.727   9.264  51.987
11858W        W 3782  41.192  43.715  53.357
11859W        W 3783  42.687  47.711  53.346
11860W        W 3784   3.294  35.699  52.420
11861W        W 3785  11.756  28.239  52.412
11862W        W 3786  34.226  37.224  53.779
11863W        W 3787   9.245  38.710  52.442
11864W        W 3788  39.713   0.762  53.325
11865W        W 3789  45.683   3.288  52.901
11866W        W 3790  43.720  11.264  50.618
11867W        W 3791  22.234  48.174  50.620
11868W        W 3792  10.262   7.766  53.779
11869W        W 3793   7.764   6.755  52.426
11870W        W 3794  13.251  35.192  50.155
11871W        W 3795  46.203   7.780  53.794
11872W        W 3796  10.774  15.734  51.510
11873W        W 3797  27.751  15.763  52.413
11874W        W 3798  16.239   7.280  51.979
11875W        W 3799  39.206   1.280  50.599
11876W        W 3800   9.743   2.782  50.595
11877W        W 3801   9.761  33.241  53.785
11878W        W 3802   6.282  47.683  50.619
11879W        W 3803  24.215  41.216  50.154
11880W        W 3804  32.714  47.215  49.673
11881W        W 3805   3.262  26.707  50.584
11882W        W 3806  36.200  39.714  50.598
11883W        W 3807  27.747  18.238  52.869
11884W        W 3808  42.226  45.675  53.345
11885W        W 3809  17.758  43.206  49.694
11886W        W 3810   3.287  17.267  50.589
11887W        W 3811  23.757  23.236  49.676
11888W        W 3812  47.194  22.734  52.416
11889W        W 3813  10.249  31.716  49.680
11890W        W 3814  18.759  31.232  51.975
11891W        W 3815  25.243  10.746  50.587
11892W        W 3816  12.242  20.230  51.970
11893W        W 3817  36.727  13.762  49.705
11894W        W 3818  24.216   3.793  52.447
11895W        W 3819  46.703  19.726  53.316
11896W        W 3820  40.192  12.271  51.986
11897W        W 3821   8.743  42.205  50.592
11898W        W 3822   8.769  24.749  53.812
11899W        W 3823  46.199  47.693  53.318
11900W        W 3824  24.241   9.242  49.686
11901W        W 3825  37.697   8.252  49.700
11902W        W 3826  31.733  18.758  52.420
11903W        W 3827  40.694  24.223  49.695
11904W        W 3828  18.262  47.707  49.678
11905W        W 3829   6.756  19.738  50.145
11906W        W 3830  24.237  47.712  51.496
11907W        W 3831  37.736  10.760  51.956
11908W        W 3832   5.758  37.212  51.052
11909W        W 3833  43.222  39.198  53.338
11910W        W 3834   7.778  39.229  53.792
11911W        W 3835  36.707  22.751  52.885
11912W        W 3836  36.732  34.206  51.987
11913W        W 3837  11.277  34.730  50.124
11914W        W 3838  42.212  15.252  51.949
11915W        W 3839   8.238  15.244  53.774
11916W        W 3840  35.214   2.268  52.444
11917W        W 3841  44.699  30.226  53.803
11918W        W 3842  30.217  47.713  52.867
11919W        W 3843   5.782  46.177  52.418
11920W        W 3844  11.271  29.702  51.039
11921W        W 3845  34.217   8.241  52.435
11922W        W 3846  31.220  17.242  51.057
11923W        W 3847  39.728  34.702  52.411
11924W        W 3848   0.775  30.224  51.076
11925W        W 3849  18.241  30.237  51.044
11926W        W 3850  21.761  29.244  51.959
11927W        W 3851  12.761   4.758  50.147
11928W        W 3852  41.712  40.196  53.813
11929W        W 3853  41.200  35.719  49.706
11930W        W 3854   1.768  46.716  49.682
11931W        W 3855  24.231   2.249  51.073
11932W        W 3856   6.250  23.719  51.531
11933W        W 3857  33.734  10.744  50.149
11934W        W 3858  39.198  45.213  52.424
11935W        W 3859   8.244  26.723  51.054
11936W        W 3860  10.764  36.727  50.141
11937W        W 3861   3.772   3.773  52.884
11938W        W 3862  22.739  12.748  51.987
11939W        W 3863  34.233  12.241  53.809
11940W        W 3864   2.786  24.257  51.500
11941W        W 3865   2.280   4.266  51.525
11942W        W 3866  10.243   1.784  50.579
11943W        W 3867  30.746  48.209  52.899
11944W        W 3868   4.258  30.729  53.354
11945W        W 3869  38.690   1.252  50.149
11946W        W 3870  37.726   9.737  49.665
11947W        W 3871  34.227  43.225  50.609
11948W        W 3872  14.239  33.196  52.888
11949W        W 3873  35.236  30.748  51.966
11950W        W 3874  45.196  15.767  53.353
11951W        W 3875  44.702  30.238  51.523
11952W        W 3876  17.238  15.261  50.601
11953W        W 3877  19.737   7.282  49.694
11954W        W 3878  10.272  35.210  52.430
11955W        W 3879   5.252  24.715  51.069
11956W        W 3880   4.265   4.247  50.599
11957W        W 3881  22.233  37.693  52.883
11958W        W 3882  37.231  16.265  51.969
11959W        W 3883  45.194   1.775  53.776
11960W        W 3884  17.265   6.279  51.503
11961W        W 3885  39.202  48.209  53.358
11962W        W 3886  36.222  15.726  50.154
11963W        W 3887  13.236  47.191  52.432
11964W        W 3888  43.720   3.780  49.682
11965W        W 3889  32.223   3.760  51.964
11966W        W 3890  42.229   4.758  50.141
11967W        W 3891  16.739  23.755  51.532
11968W        W 3892  26.247  25.251  52.872
11969W        W 3893  30.246  47.194  51.506
11970W        W 3894  14.772  32.244  51.045
11971W        W 3895  12.739  42.715  51.507
11972W        W 3896  28.219  14.230  51.969
11973W        W 3897   0.771  24.720  52.863
11974W        W 3898  39.685   4.267  53.774
11975W        W 3899  16.737  37.226  51.974
11976W        W 3900   2.287  26.715  51.529
11977W        W 3901  18.232  38.222  53.321
11978W        W 3902   5.269  17.245  53.332
11979W        W 3903  38.198  22.252  51.045
11980W        W 3904  28.740  26.748  51.981
11981W        W 3905  26.719  13.267  53.785
11982W        W 3906  25.251  25.237  53.774
11983W        W 3907  35.719  26.251  52.446
11984W        W 3908  17.722  18.756  51.531
11985W        W 3909   3.279   5.268  50.158
11986W        W 3910  25.751  11.242  51.982
11987W        W 3911  27.709  16.749  51.057
11988W        W 3912  17.232  44.700  50.148
11989W        W 3913  29.717   6.740  52.428
11990W        W 3914  22.262  35.216  50.159
11991W        W 3915  28.214  20.260  51.512
11992W        W 3916  43.703  43.708  53.354
11993W        W 3917  16.236  36.236  49.686
11994W        W 3918   2.254  44.706  52.411
11995W        W 3919  29.243  31.210  51.507
11996W        W 3920  41.706   7.259  52.900
11997W        W 3921  10.270  27.706  52.420
11998W        W 3922  46.193  22.716  50.611
11999W        W 3923  31.717   4.743  52.440
12000W        W 3924   9.758  43.718  50.611
12001W        W 3925  40.201  10.772  51.524
12002W        W 3926  45.180  16.230  51.979
12003W        W 3927  18.240  37.211  53.782
12004W        W 3928  26.744  20.262  51.526
12005W        W 3929   5.755  34.208  52.446
12006W        W 3930  34.733  40.731  51.963
12007W        W 3931   7.738  28.722  49.686
12008W        W 3932  14.728  23.737  53.318
12009W        W 3933  48.218  18.222  51.058
12010W        W 3934  21.234  12.773  52.434
12011W        W 3935   8.776  41.682  53.341
12012W        W 3936   7.781  40.189  52.889
12013W        W 3937   6.768  10.241  52.442
12014W        W 3938  47.210   4.791  52.407
12015W        W 3939  39.729  20.250  52.416
12016W        W 3940  28.723  21.249  51.531
12017W        W 3941  41.197  36.737  51.041
12018W        W 3942  24.240  15.759  51.045
12019W        W 3943  18.221  44.721  52.428
12020W        W 3944  41.212  25.225  53.808
12021W        W 3945  16.270  25.749  52.888
12022W        W 3946   5.764   5.743  49.698
12023W        W 3947  46.692  44.697  51.974
12024W        W 3948  12.751  30.231  49.698
12025W        W 3949  42.229  41.190  53.780
12026W        W 3950   8.765  29.227  49.704
12027W        W 3951  35.238  33.226  53.345
12028W        W 3952  30.701  45.198  52.895
12029W        W 3953  40.707   0.255  51.991
12030W        W 3954   0.261   0.268  51.514
12031W        W 3955  46.706  23.215  53.775
12032W        W 3956  13.758  20.720  49.701
12033W        W 3957  10.737  27.750  50.153
12034W        W 3958  39.207  23.222  51.512
12035W        W 3959  23.758  30.233  51.037
12036W        W 3960  24.759  34.714  52.862
12037W        W 3961   7.263  24.232  52.870
12038W        W 3962  36.693   3.790  51.054
12039W        W 3963  24.755  41.224  51.985
12040W        W 3964  16.736  16.267  49.676
12041W        W 3965  27.241  46.691  52.407
12042W        W 3966  30.213   1.296  50.143
12043W        W 3967   2.780  35.718  52.895
12044W        W 3968  29.736   0.764  52.417
12045W        W 3969   3.262  19.230  49.677
12046W        W 3970  43.213  19.247  51.074
12047W        W 3971   9.271  37.720  50.128
12048W        W 3972  19.718  23.238  53.323
12049W        W 3973  24.244  39.201  50.591
12050W        W 3974  39.206  40.204  51.051
12051W        W 3975  29.715  26.749  49.694
12052W        W 3976   1.292  33.230  51.514
12053W        W 3977  13.734  47.678  52.873
12054W        W 3978  14.761  30.244  50.155
12055W        W 3979  44.695  13.747  53.329
12056W        W 3980  47.691  18.256  52.890
12057W        W 3981  29.241  45.693  53.331
12058W        W 3982  31.223  21.216  52.863
12059W        W 3983  39.206   8.736  51.987
12060W        W 3984  40.196  20.255  49.695
12061W        W 3985  15.259  35.212  50.148
12062W        W 3986  15.240  21.714  49.707
12063W        W 3987  36.714  20.253  49.695
12064W        W 3988  10.250  47.684  53.336
12065W        W 3989  35.700  24.711  52.877
12066W        W 3990  19.243  43.228  51.519
12067W        W 3991  41.212  46.215  51.534
12068W        W 3992   8.774  31.229  51.066
12069W        W 3993  36.225   3.274  51.066
12070W        W 3994  33.212  18.236  53.336
12071W        W 3995  39.708  43.690  51.074
12072W        W 3996  11.763  36.734  51.989
12073W        W 3997   8.282  11.753  49.665
12074W        W 3998  18.720  30.212  51.975
12075W        W 3999  29.229  37.211  50.583
12076W        W 4000  33.196  13.764  51.960
12077W        W 4001  46.705  44.221  49.692
12078W        W 4002   2.766  43.695  53.355
12079W        W 4003  23.234  37.696  52.440
12080W        W 4004  23.729  37.697  49.687
12081W        W 4005  32.240  11.274  52.888
12082W        W 4006  38.207  37.706  51.975
12083W        W 4007  37.721  39.708  50.127
12084W        W 4008   9.255  48.215  52.445
12085W        W 4009  35.207  47.175  49.692
12086W        W 4010   6.252   2.755  50.134
12087W        W 4011  44.687  16.745  50.165
12088W        W 4012   7.246  42.726  53.774
12089W        W 4013  46.705  34.201  53.350
12090W        W 4014  36.213  36.206  53.790
12091W        W 4015  23.741  48.202  49.691
12092W        W 4016  46.683  19.764  51.964
12093W        W 4017  35.229  29.232  53.806
12094W        W 4018  14.740  27.229  50.151
12095W        W 4019  38.714  23.241  53.798
12096W        W 4020  36.728  36.211  52.425
12097W        W 4021  19.237  10.241  49.688
12098W        W 4022  26.256  42.702  53.319
12099W        W 4023   2.279   6.788  53.336
12100W        W 4024  10.754  40.705  53.776
12101W        W 4025  47.678   7.281  52.866
12102W        W 4026  13.272  23.220  51.525
12103W        W 4027  10.766  46.176  51.951
12104W        W 4028  44.711  22.726  51.058
12105W        W 4029  25.224  39.724  50.150
12106W        W 4030  26.226  21.248  50.594
12107W        W 4031  36.694  23.214  53.337
12108W        W 4032  15.267  37.706  53.356
12109W        W 4033  31.213  22.725  51.064
12110W        W 4034  37.229  36.709  51.956
12111W        W 4035   2.272  19.729  49.688
12112W        W 4036  27.719  19.734  51.969
12113W        W 4037  10.733  45.677  51.534
12114W        W 4038  37.698  21.257  52.898
12115W        W 4039  29.724  46.200  52.432
12116W        W 4040  29.219  46.187  52.406
12117W        W 4041   9.279   9.253  49.685
12118W        W 4042  24.230  18.747  49.696
12119W        W 4043  16.238  13.750  53.804
12120W        W 4044  23.723  21.715  53.361
12121W        W 4045  34.720  46.194  52.865
12122W        W 4046  30.218  27.208  53.326
12123W        W 4047  30.211  24.219  52.403
12124W        W 4048  43.717  13.239  50.588
12125W        W 4049  12.248  33.242  50.591
12126W        W 4050  12.751  30.739  52.902
12127W        W 4051  25.240  14.248  51.529
12128W        W 4052  33.716  45.681  50.597
12129W        W 4053  40.721   2.264  51.051
12130W        W 4054  18.233   1.277  52.404
12131W        W 4055  37.205  19.762  51.045
12132W        W 4056   1.754  39.722  51.054
12133W        W 4057  19.248   7.751  52.875
12134W        W 4058  39.716  20.221  51.962
12135W        W 4059  46.687  42.200  50.591
12136W        W 4060  12.279  14.264  52.444
12137W        W 4061  39.704  11.737  53.350
12138W        W 4062  38.686  40.195  49.704
12139W        W 4063  18.233  39.694  51.071
12140W        W 4064  32.237  19.239  50.124
12141W        W 4065  35.218  12.272  52.407
12142W        W 4066  22.232   5.781  51.969
12143W        W 4067  11.237  44.226  51.978
12144W        W 4068  12.744  40.186  49.706
12145W        W 4069  33.720  19.750  52.440
12146W        W 4070   5.743   3.758  50.150
12147W        W 4071  27.726  26.750  52.429
12148W        W 4072  24.723   7.249  52.414
12149W        W 4073  39.232   5.779  53.318
12150W        W 4074  11.267  19.727  53.343
12151W        W 4075  42.699  14.263  52.422
12152W        W 4076  18.230  26.222  53.357
12153W        W 4077   5.280  37.727  49.706
12154W        W 4078   4.278  42.213  53.361
12155W        W 4079  20.218  38.220  49.668
12156W        W 4080  23.750   3.790  50.612
12157W        W 4081  35.710  15.762  52.867
12158W        W 4082  22.717  41.215  52.881
12159W        W 4083  26.714  31.744  51.955
12160W        W 4084  25.734  43.714  52.901
12161W        W 4085  29.727  43.680  52.880
12162W        W 4086   1.766  37.710  50.145
12163W        W 4087  21.724   4.758  51.509
12164W        W 4088  37.705  14.234  51.968
12165W        W 4089  36.738   6.273  51.053
12166W        W 4090   3.756  26.245  51.049
12167W        W 4091   1.276  17.755  50.611
12168W        W 4092  22.729   2.257  51.526
12169W        W 4093  19.727  33.721  53.333
12170W        W 4094  41.725  46.182  50.601
12171W        W 4095  32.713  47.675  51.959
12172W        W 4096  38.226  12.771  52.429
12173W        W 4097  10.756  46.701  51.503
12174W        W 4098  31.242  42.219  53.345
12175W        W 4099  22.214  30.218  51.532
12176W        W 4100  25.739  25.721  50.146
12177W        W 4101  48.188  32.702  51.986
12178W        W 4102  26.733  34.195  53.806
12179W        W 4103  37.226  45.191  50.601
12180W        W 4104  15.767   6.261  49.673
12181W        W 4105   7.780   6.258  52.430
12182W        W 4106  12.253  45.682  49.693
12183W        W 4107  23.718  33.719  51.960
12184W        W 4108   5.750   2.788  53.328
12185W        W 4109  33.697  45.220  53.789
12186W        W 4110  18.245  39.225  51.062
12187W        W 4111   5.777  44.687  50.155
12188W        W 4112  10.261  43.706  51.073
12189W        W 4113  19.734  36.730  53.777
12190W        W 4114   6.756  18.254  51.045
12191W        W 4115  13.760  22.260  51.511
12192W        W 4116  20.749  32.236  53.805
12193W        W 4117  37.238  39.232  52.894
12194W        W 4118  28.234  33.737  51.965
12195W        W 4119  34.716  14.742  52.882
12196W        W 4120  15.725  12.253  50.588
12197W        W 4121   9.750  14.263  50.613
12198W        W 4122  33.714   0.771  50.592
12199W        W 4123   2.255  21.734  51.972
12200W        W 4124  33.715  32.723  53.344
12201W        W 4125  12.268  40.704  53.357
12202W        W 4126  26.738   8.242  51.064
12203W        W 4127  34.736  26.228  49.690
12204W        W 4128   0.794  19.742  53.356
12205W        W 4129   4.252  27.207  50.600
12206W        W 4130  33.743  35.233  51.042
12207W        W 4131  38.217  14.726  50.577
12208W        W 4132  17.269   1.297  49.699
12209W        W 4133  22.751   2.259  53.801
12210W        W 4134  27.242   9.254  51.041
12211W        W 4135  21.254  39.702  50.601
12212W        W 4136  38.230  42.686  53.792
12213W        W 4137  25.753  35.212  50.130
12214W        W 4138  39.719  48.216  49.684
12215W        W 4139  43.217  36.197  51.053
12216W        W 4140  26.724   3.245  52.868
12217W        W 4141  19.750  18.266  53.351
12218W        W 4142   0.775   4.774  52.442
12219W        W 4143  38.690  11.259  51.048
12220W        W 4144  35.693  10.739  50.161
12221W        W 4145  30.250  18.233  50.144
12222W        W 4146   1.284  30.739  53.818
12223W        W 4147  42.689  30.216  53.774
12224W        W 4148  31.240  11.753  51.514
12225W        W 4149  39.213  45.707  52.864
12226W        W 4150   7.283  16.249  51.510
12227W        W 4151  43.195  10.261  51.991
12228W        W 4152  45.197   8.742  50.580
12229W        W 4153   5.782  44.714  51.036
12230W        W 4154  32.212   0.770  53.797
12231W        W 4155  40.198  21.737  50.595
12232W        W 4156  36.202  25.719  53.800
12233W        W 4157  43.688  31.709  50.144
12234W        W 4158  29.716  13.261  52.878
12235W        W 4159  16.236  32.216  51.988
12236W        W 4160  30.706   2.258  50.136
12237W        W 4161  24.726   5.755  52.877
12238W        W 4162  34.695  11.739  52.410
12239W        W 4163   5.790  41.696  51.978
12240W        W 4164  40.702  18.268  52.404
12241W        W 4165  39.185  42.693  50.132
12242W        W 4166  42.189   5.272  53.329
12243W        W 4167   9.281  38.714  53.798
12244W        W 4168  44.211  45.688  49.678
12245W        W 4169  18.226  38.687  49.691
12246W        W 4170  44.702  29.731  49.686
12247W        W 4171  34.715  46.186  53.816
12248W        W 4172  44.689  28.218  49.706
12249W        W 4173  40.205  16.234  53.336
12250W        W 4174  40.693  21.257  51.499
12251W        W 4175  14.268  28.725  51.973
12252W        W 4176   3.751  27.725  53.772
12253W        W 4177  26.252  48.195  50.600
12254W        W 4178  35.735  40.201  53.804
12255W        W 4179  39.700  34.212  53.328
12256W        W 4180  45.706  33.217  52.427
12257W        W 4181   4.267   0.799  51.987
12258W        W 4182   2.794  28.720  51.503
12259W        W 4183   3.260  23.734  50.123
12260W        W 4184  26.240  36.200  50.159
12261W        W 4185  35.209  22.214  53.352
12262W        W 4186  37.709  16.224  53.358
12263W        W 4187  33.220  18.744  50.121
12264W        W 4188  44.685   1.286  51.037
12265W        W 4189  16.249  19.749  53.323
12266W        W 4190   8.739  18.265  53.776
12267W        W 4191  34.224   7.272  51.078
12268W        W 4192  33.703  48.176  52.418
12269W        W 4193  10.272  33.239  53.789
12270W        W 4194  38.717  14.251  51.519
12271W        W 4195  47.699  19.233  50.622
12272W        W 4196  16.268  32.709  52.444
12273W        W 4197   5.287   7.246  50.133
12274W        W 4198  42.690  37.207  53.350
12275W        W 4199  45.189  41.707  51.062
12276W        W 4200   5.265   6.271  52.406
12277W        W 4201  46.176  33.706  52.876
12278W        W 4202  25.711   8.283  50.159
12279W        W 4203   9.245  36.703  50.128
12280W        W 4204  25.714  19.265  52.431
12281W        W 4205  34.242   6.758  53.360
12282W        W 4206   8.739  35.200  51.990
12283W        W 4207   1.781   1.250  49.675
12284W        W 4208  31.731  28.736  50.125
12285W        W 4209  44.700  26.231  51.982
12286W        W 4210  12.266  11.742  52.878
12287W        W 4211  16.252  33.217  52.414
12288W        W 4212  22.726  17.756  52.865
12289W        W 4213   3.766   5.254  51.981
12290W        W 4214  17.725   6.277  49.694
12291W        W 4215  21.733   9.783  52.862
12292W        W 4216   0.751  30.215  52.880
12293W        W 4217   2.285  24.237  52.437
12294W        W 4218  19.224  31.744  50.140
12295W        W 4219  23.740  24.216  51.071
12296W        W 4220  13.278   7.746  50.605
12297W        W 4221  18.723  38.724  51.987
12298W        W 4222  32.726  43.193  51.524
12299W        W 4223  20.759  38.695  51.972
12300W        W 4224  26.742  34.231  53.344
12301W        W 4225  40.213  47.691  53.787
12302W        W 4226   1.770  33.196  50.617
12303W        W 4227  27.232  16.725  52.415
12304W        W 4228  34.711  35.712  53.346
12305W        W 4229   7.768  47.214  52.427
12306W        W 4230  23.739  28.708  50.610
12307W        W 4231  47.691  14.233  52.417
12308W        W 4232  37.203  20.756  50.164
12309W        W 4233  16.254  22.752  51.992
12310W        W 4234  30.204  14.730  49.668
12311W        W 4235  10.744  30.710  50.615
12312W        W 4236  21.722  43.715  49.700
12313W        W 4237  38.724  45.187  52.899
12314W        W 4238  15.739   5.254  52.889
12315W        W 4239  11.763   4.748  52.872
12316W        W 4240  44.195  41.209  53.319
12317W        W 4241  43.179  41.727  51.514
12318W        W 4242  41.692  11.763  53.330
12319W        W 4243   4.766  12.260  53.347
12320W        W 4244  19.739  10.745  53.778
12321W        W 4245  42.229  29.206  52.869
12322W        W 4246  35.706  48.212  51.991
12323W        W 4247  35.714  19.250  51.967
12324W        W 4248  48.209  44.712  50.606
12325W        W 4249   5.286   7.271  49.673
12326W        W 4250  29.717  20.257  52.448
12327W        W 4251  40.215  31.698  49.693
12328W        W 4252  30.243  19.230  53.333
12329W        W 4253  23.760  20.254  50.606
12330W        W 4254  38.229  35.226  51.497
12331W        W 4255   2.746  37.695  51.525
12332W        W 4256  47.680  25.738  53.813
12333W        W 4257  18.725  18.764  49.701
12334W        W 4258  21.237   4.271  52.874
12335W        W 4259  36.230  31.705  49.679
12336W        W 4260  22.761  19.231  49.665
12337W        W 4261  33.702  21.263  50.160
12338W        W 4262  47.215   7.284  49.694
12339W        W 4263  27.751  44.207  52.892
12340W        W 4264  20.221   9.748  49.696
12341W        W 4265   5.253  35.713  49.675
12342W        W 4266  13.263  41.720  51.985
12343W        W 4267   4.268  21.251  50.165
12344W        W 4268  47.708  43.193  51.078
12345W        W 4269  28.751  46.207  50.619
12346W        W 4270  32.735   2.779  51.046
12347W        W 4271   3.759   3.766  50.148
12348W        W 4272  13.741  28.750  50.602
12349W        W 4273  44.179   3.289  53.816
12350W        W 4274  34.696   6.245  49.667
12351W        W 4275  43.198  18.755  49.682
12352W        W 4276  47.691   0.260  51.516
12353W        W 4277  21.721  24.256  53.316
12354W        W 4278  17.264  30.245  51.048
12355W        W 4279  41.717  45.211  52.895
12356W        W 4280  21.762  25.245  51.520
12357W        W 4281  25.732  17.248  52.433
12358W        W 4282  20.745  46.181  52.447
12359W        W 4283   2.286  14.233  51.532
12360W        W 4284  38.703   6.267  52.900
12361W        W 4285  45.708  22.233  51.499
12362W        W 4286  31.243  43.692  50.596
12363W        W 4287  14.243  40.223  52.860
12364W        W 4288  33.743  20.245  49.680
12365W        W 4289  10.775  24.219  50.583
12366W        W 4290  31.728   0.752  49.681
12367W        W 4291  37.201  30.733  51.990
12368W        W 4292  16.251  10.276  49.674
12369W        W 4293  43.689  20.739  51.975
12370W        W 4294  17.259  32.720  53.357
12371W        W 4295  31.705  32.220  53.326
12372W        W 4296  36.697  24.213  51.069
12373W        W 4297  44.682  18.727  51.040
12374W        W 4298  43.183  19.249  51.494
12375W        W 4299   1.285  30.708  51.949
12376W        W 4300  23.722  30.729  52.407
12377W        W 4301  44.701  26.222  51.527
12378W        W 4302  38.220   4.780  52.877
12379W        W 4303  28.727  13.248  53.339
12380W        W 4304  27.726  18.747  49.690
12381W        W 4305  14.269   9.752  51.980
12382W        W 4306  41.719  28.216  53.335
12383W        W 4307  29.232  47.180  51.987
12384W        W 4308  47.191   2.254  51.078
12385W        W 4309  39.709  17.231  52.862
12386W        W 4310   8.283  40.712  51.522
12387W        W 4311  21.222   6.270  53.772
12388W        W 4312  37.734  33.217  53.320
12389W        W 4313  15.726  27.713  52.878
12390W        W 4314  27.721  40.229  53.353
12391W        W 4315   9.244  20.225  50.602
12392W        W 4316  11.773  39.711  49.709
12393W        W 4317  17.758  46.210  51.036
12394W        W 4318   1.772  39.690  50.605
12395W        W 4319  12.763  26.237  50.589
12396W        W 4320  29.749  26.708  52.431
12397W        W 4321  31.739  20.245  51.991
12398W        W 4322  45.193   5.280  52.434
12399W        W 4323  30.741  13.760  52.871
12400W        W 4324  32.226  21.740  51.059
12401W        W 4325  48.199  10.259  53.335
12402W        W 4326  25.744   4.777  53.335
12403W        W 4327  24.254  29.214  53.346
12404W        W 4328  21.243  29.230  50.579
12405W        W 4329  25.252   0.794  53.346
12406W        W 4330   5.249  22.247  52.883
12407W        W 4331   4.790  21.235  49.683
12408W        W 4332  28.215  17.260  50.127
12409W        W 4333   4.259  22.738  49.696
12410W        W 4334  36.214  31.227  51.059
12411W        W 4335  24.222  21.739  50.591
12412W        W 4336   9.749  47.678  51.069
12413W        W 4337  24.216  11.750  51.970
12414W        W 4338  23.223  39.725  53.783
12415W        W 4339   0.762  47.680  53.810
12416W        W 4340  27.712  11.254  52.860
12417W        W 4341  26.241  31.208  53.346
12418W        W 4342  10.758  15.266  50.610
12419W        W 4343  10.251  47.672  53.804
12420W        W 4344   7.241  47.193  52.441
12421W        W 4345  29.232  38.699  50.596
12422W        W 4346  15.232  37.721  52.445
12423W        W 4347  29.717  25.728  51.510
12424W        W 4348  30.229  21.758  49.670
12425W        W 4349  39.219  37.204  53.344
12426W        W 4350   7.763  26.254  51.958
12427W        W 4351  23.737   2.776  50.140
12428W        W 4352  35.205  29.211  52.883
12429W        W 4353  30.721  16.233  53.326
12430W        W 4354  37.210  34.729  52.426
12431W        W 4355  44.685  27.215  53.799
12432W        W 4356  28.723  27.219  50.139
12433W        W 4357  36.719   9.258  50.164
12434W        W 4358   4.768  33.701  49.708
12435W        W 4359  46.198  22.262  51.052
12436W        W 4360   0.754  24.214  51.977
12437W        W 4361  15.760  35.223  50.146
12438W        W 4362  18.220   9.781  52.431
12439W        W 4363  43.686  41.711  51.973
12440W        W 4364  27.732  38.197  51.948
12441W        W 4365  28.708  23.232  53.785
12442W        W 4366  36.194   2.261  52.406
12443W        W 4367  46.716  45.717  51.515
12444W        W 4368  16.760  22.726  51.493
12445W        W 4369  36.214   0.268  51.036
12446W        W 4370  35.721   5.268  49.691
12447W        W 4371  38.691   1.775  50.613
12448W        W 4372  35.696   9.278  53.812
12449W        W 4373  21.233   9.237  52.879
12450W        W 4374   4.277  35.214  51.966
12451W        W 4375   6.286   2.277  52.902
12452W        W 4376  30.242  21.732  53.807
12453W        W 4377  20.217  31.217  51.962
12454W        W 4378   9.762  12.758  50.163
12455W        W 4379   5.245  12.275  52.866
12456W        W 4380  30.726  38.706  53.359
12457W        W 4381  41.716  12.746  50.580
12458W        W 4382  21.253   1.782  51.037
12459W        W 4383  11.759  36.204  52.406
12460W        W 4384   6.788  26.733  52.429
12461W        W 4385   3.252  27.212  51.534
12462W        W 4386  46.218  22.737  50.125
12463W        W 4387  11.751  47.695  49.664
12464W        W 4388  15.272  47.186  51.975
12465W        W 4389   2.277  30.705  51.068
12466W        W 4390  24.727  15.240  51.514
12467W        W 4391   5.269   1.249  50.601
12468W        W 4392   6.761  36.738  51.494
12469W        W 4393  48.206  32.727  53.815
12470W        W 4394  45.709  47.193  53.799
12471W        W 4395  47.206  39.689  50.132
12472W        W 4396  12.261  32.206  50.127
12473W        W 4397   8.266  27.241  53.811
12474W        W 4398  15.766   5.288  51.946
12475W        W 4399  28.710  25.748  51.512
12476W        W 4400  30.227  35.221  53.792
12477W        W 4401  10.275   9.783  53.800
12478W        W 4402   3.775   8.277  51.518
12479W        W 4403  35.738  30.229  52.893
12480W        W 4404  26.233  14.762  52.406
12481W        W 4405   8.747  17.724  51.037
12482W        W 4406  19.746   3.750  50.165
12483W        W 4407   1.752   2.266  52.417
12484W        W 4408  18.734  46.217  50.162
12485W        W 4409  19.733  47.697  50.590
12486W        W 4410  26.210  39.206  50.147
12487W        W 4411  38.219  29.705  52.425
12488W        W 4412  28.721  13.256  51.521
12489W        W 4413  43.223  17.243  49.670
12490W        W 4414  44.209  17.729  49.680
12491W        W 4415  15.753  37.225  53.336
12492W        W 4416   2.752  20.730  49.694
12493W        W 4417   0.289  45.713  51.047
12494W        W 4418  47.696  24.237  52.446
12495W        W 4419  33.214  18.226  50.583
12496W        W 4420   9.284  34.730  49.672
12497W        W 4421  35.227  16.264  49.687
12498W        W 4422  44.186  28.235  51.975
12499W        W 4423  43.696  12.730  50.145
12500W        W 4424  31.226  36.217  53.319
12501W        W 4425  16.745   8.272  50.159
12502W        W 4426  47.211   9.775  49.693
12503W        W 4427  14.736  44.684  53.346
12504W        W 4428  46.691   9.272  53.345
12505W        W 4429  31.701  43.180  51.066
12506W        W 4430  21.257   3.251  50.123
12507W        W 4431  29.212  11.757  51.522
12508W        W 4432  13.270  31.222  50.592
12509W        W 4433  31.227   0.763  50.122
12510W        W 4434  28.719  33.732  51.978
12511W        W 4435  10.249  31.740  53.347
12512W        W 4436  39.204  34.721  49.674
12513W        W 4437  41.206  35.234  53.317
12514W        W 4438  18.237   2.294  50.614
12515W        W 4439   2.291  23.724  50.146
12516W        W 4440  19.740   0.278  51.075
12517W        W 4441  24.758  30.743  51.507
12518W        W 4442  30.238  32.702  51.528
12519W        W 4443  26.244  20.756  51.039
12520W        W 4444  34.209  29.747  53.360
12521W        W 4445  43.697  36.725  51.507
12522W        W 4446  37.722  22.221  53.794
12523W        W 4447  15.245  12.773  51.500
12524W        W 4448  40.220  12.230  52.863
12525W        W 4449   3.777   3.289  51.077
12526W        W 4450  12.777  47.221  53.778
12527W        W 4451   9.269  23.741  53.361
12528W        W 4452  14.235  25.225  53.808
12529W        W 4453  17.226  44.225  50.622
12530W        W 4454   8.778  43.700  50.598
12531W        W 4455  20.765  32.218  51.502
12532W        W 4456  22.733  39.229  53.813
12533W        W 4457  26.742  12.245  51.070
12534W        W 4458   2.271  14.733  52.890
12535W        W 4459  37.727  18.754  51.500
12536W        W 4460   9.774  17.768  50.581
12537W        W 4461   4.285   1.769  52.871
12538W        W 4462   9.281  32.235  53.340
12539W        W 4463  10.753   1.786  50.134
12540W        W 4464  32.244  27.731  50.124
12541W        W 4465   2.758  21.758  51.034
12542W        W 4466  37.737  12.742  50.577
12543W        W 4467  21.246  17.236  53.773
12544W        W 4468  26.742  41.695  50.616
12545W        W 4469  18.238  13.235  52.408
12546W        W 4470  29.215  20.722  52.416
12547W        W 4471   1.259   9.268  51.049
12548W        W 4472  10.236  46.708  50.128
12549W        W 4473  22.215  36.730  50.593
12550W        W 4474   5.260  45.197  50.597
12551W        W 4475   6.748  23.727  51.991
12552W        W 4476  22.246  19.759  51.508
12553W        W 4477  12.737   4.754  51.040
12554W        W 4478  45.181  19.240  51.062
12555W        W 4479  18.767  21.728  53.321
12556W        W 4480  20.766  47.694  51.498
12557W        W 4481  23.242   2.292  51.975
12558W        W 4482  33.719   0.286  50.156
12559W        W 4483  16.235  21.745  52.414
12560W        W 4484   6.264  18.756  51.985
12561W        W 4485  35.722  23.254  53.817
12562W        W 4486  43.182  32.222  53.812
12563W        W 4487  32.214  19.738  50.143
12564W        W 4488  44.712  21.754  51.950
12565W        W 4489   7.746  35.715  51.070
12566W        W 4490  22.241  35.213  52.403
12567W        W 4491  36.219  36.227  53.342
12568W        W 4492  38.720  40.721  52.870
12569W        W 4493  44.182  30.704  49.670
12570W        W 4494   5.280  39.203  51.047
12571W        W 4495  30.733  47.195  51.054
12572W        W 4496  38.212   1.293  53.333
12573W        W 4497  14.262  46.217  50.151
12574W        W 4498  28.707  20.232  51.966
12575W        W 4499  18.256  32.201  50.145
12576W        W 4500  23.254  30.249  51.988
12577W        W 4501  28.717  28.707  50.155
12578W        W 4502   4.785  39.728  50.597
12579W        W 4503   3.761  34.226  51.534
12580W        W 4504   6.743   5.771  52.414
12581W        W 4505  47.177  18.736  51.045
12582W        W 4506  41.727  46.194  51.532
12583W        W 4507  25.230  13.262  53.323
12584W        W 4508  17.758  20.734  53.778
12585W        W 4509  18.236  34.220  50.620
12586W        W 4510  34.241   2.257  53.322
12587W        W 4511   0.759  43.718  53.328
12588W        W 4512  45.192  23.220  53.785
12589W        W 4513  19.752  41.204  51.515
12590W        W 4514   6.746   4.288  51.981
12591W        W 4515  35.233  10.764  50.621
12592W        W 4516   9.246  31.722  53.319
12593W        W 4517  34.204  32.211  52.873
12594W        W 4518  21.229  10.759  52.439
12595W        W 4519  18.755  44.721  51.061
12596W        W 4520   6.788  44.213  49.677
12597W        W 4521  29.215   4.288  52.874
12598W        W 4522  22.747   7.276  50.151
12599W        W 4523  46.688  15.254  52.412
12600W        W 4524  38.703  14.234  50.588
12601W        W 4525  14.757  11.748  51.038
12602W        W 4526  13.771  29.742  52.876
12603W        W 4527  28.714  12.263  52.864
12604W        W 4528   5.262  37.227  53.338
12605W        W 4529   6.766  12.759  53.805
12606W        W 4530  16.734  47.177  50.148
12607W        W 4531   7.258  35.713  52.425
12608W        W 4532  19.233  31.216  52.410
12609W        W 4533  12.746  13.270  52.884
12610W        W 4534  26.750  36.696  50.612
12611W        W 4535  35.703   3.262  50.591
12612W        W 4536   5.246  31.735  53.338
12613W        W 4537  44.691  22.718  52.870
12614W        W 4538  22.716  32.719  49.664
12615W        W 4539   8.266  33.735  50.621
12616W        W 4540  48.186   6.788  50.133
12617W        W 4541  19.735   1.288  50.163
12618W        W 4542  24.238   7.266  51.974
12619W        W 4543  22.736   2.279  51.052
12620W        W 4544  11.280  22.240  50.148
12621W        W 4545   0.282  43.707  49.684
12622W        W 4546  10.756  34.205  50.619
12623W        W 4547  45.686  46.687  53.350
12624W        W 4548  37.716  43.700  51.952
12625W        W 4549  33.199  46.196  51.978
12626W        W 4550  32.215   7.239  53.357
12627W        W 4551  20.237  14.765  50.606
12628W        W 4552  11.251  12.775  51.986
12629W        W 4553  40.205  34.239  49.675
12630W        W 4554  18.758  35.735  51.048
12631W        W 4555  42.726  16.224  50.616
12632W        W 4556  16.225  31.735  52.891
12633W        W 4557   3.771  23.723  53.336
12634W        W 4558  15.754  39.220  52.425
12635W        W 4559  20.725  29.701  50.591
12636W        W 4560  44.719   9.258  53.326
12637W        W 4561  10.243  40.718  50.618
12638W        W 4562  45.181  42.207  53.792
12639W        W 4563  11.279   2.294  52.879
12640W        W 4564  28.735  17.250  51.049
12641W        W 4565  29.208  37.729  51.959
12642W        W 4566  40.705  12.738  52.436
12643W        W 4567   7.240   7.275  51.523
12644W        W 4568  34.737   2.786  51.042
12645W        W 4569  46.682  15.243  50.153
12646W        W 4570   9.765  21.753  50.609
12647W        W 4571  30.200  36.734  51.074
12648W        W 4572  39.232   8.758  50.581
12649W        W 4573  28.247  29.714  51.511
12650W        W 4574  45.220  29.743  52.867
12651W        W 4575  12.245  14.273  51.967
12652W        W 4576  37.213  44.214  52.890
12653W        W 4577  12.248  25.239  50.126
12654W        W 4578  39.697  39.715  50.602
12655W        W 4579  44.188  11.769  50.130
12656W        W 4580  18.723  41.207  49.695
12657W        W 4581  33.723  22.260  53.322
12658W        W 4582   6.287  45.716  53.797
12659W        W 4583  28.207  39.194  53.778
12660W        W 4584   2.763  14.765  51.036
12661W        W 4585  11.267  13.239  52.414
12662W        W 4586  11.750   5.264  52.895
12663W        W 4587  21.235  22.760  52.429
12664W        W 4588  30.241  34.219  51.500
12665W        W 4589  42.728  29.744  51.040
12666W        W 4590  38.695  30.737  52.900
12667W        W 4591  13.275  47.182  51.065
12668W        W 4592  46.222  12.279  50.598
12669W        W 4593  10.269  26.733  51.984
12670W        W 4594  16.742  28.206  52.892
12671W        W 4595  34.203   9.278  50.602
12672W        W 4596   4.790  40.703  49.675
12673W        W 4597  25.227  38.228  50.584
12674W        W 4598  47.690  26.215  50.602
12675W        W 4599  35.210  15.245  53.337
12676W        W 4600  31.739   1.250  50.618
12677W        W 4601  48.200  38.209  52.883
12678W        W 4602  27.724  19.767  51.079
12679W        W 4603  46.176  36.696  53.811
12680W        W 4604  24.758  41.716  49.671
12681W        W 4605  42.199  35.195  50.136
12682W        W 4606   8.269   5.291  50.123
12683W        W 4607   7.262  10.277  51.051
12684W        W 4608  19.762  35.701  49.704
12685W        W 4609  21.752   7.279  49.678
12686W        W 4610  40.697   4.782  50.583
12687W        W 4611  20.735  34.725  52.884
12688W        W 4612   8.766  28.208  50.579
12689W        W 4613  27.237  38.220  53.326
12690W        W 4614  46.185   2.294  52.443
12691W        W 4615   0.251  45.197  52.900
12692W        W 4616  47.690  17.740  50.121
12693W        W 4617  43.687  38.696  53.808
12694W        W 4618  16.230  39.701  53.319
12695W        W 4619  16.234  22.762  53.779
12696W        W 4620  11.748  31.700  49.707
12697W        W 4621  22.254  46.674  52.869
12698W        W 4622  30.236   2.792  53.336
12699W        W 4623  19.245  24.754  49.705
12700W        W 4624  24.225  10.238  49.670
12701W        W 4625  27.731  16.724  49.703
12702W        W 4626  12.776   8.242  51.987
12703W        W 4627  22.245  35.698  52.412
12704W        W 4628  30.727  39.197  53.328
12705W        W 4629  26.256  15.763  51.078
12706W        W 4630  46.694  47.207  50.622
12707W        W 4631  19.723  12.245  50.623
12708W        W 4632  43.702  12.775  51.070
12709W        W 4633  46.211  40.718  49.682
12710W        W 4634  47.195  20.231  52.446
12711W        W 4635  10.771  33.238  51.947
12712W        W 4636  18.741  47.686  51.510
12713W        W 4637  36.221  34.697  52.900
12714W        W 4638  45.704  46.180  50.614
12715W        W 4639   0.299  31.234  53.327
12716W        W 4640  37.694  19.737  50.130
12717W        W 4641   6.741  19.744  50.600
12718W        W 4642  14.276  32.229  50.138
12719W        W 4643  38.704   6.272  51.974
12720W        W 4644  44.213  37.193  51.978
12721W        W 4645  44.195   1.279  51.979
12722W        W 4646  32.242   8.742  51.036
12723W        W 4647   2.263   1.289  52.425
12724W        W 4648  10.761  11.768  52.423
12725W        W 4649  41.693  13.753  52.439
12726W        W 4650  11.254   4.246  50.605
12727W        W 4651  21.252  17.243  50.587
12728W        W 4652  35.738  18.231  52.408
12729W        W 4653  30.249  24.242  53.804
12730W        W 4654  41.712  22.759  49.675
12731W        W 4655   0.758   5.776  52.429
12732W        W 4656   4.282  45.185  50.133
12733W        W 4657  21.215  36.214  49.684
12734W        W 4658  10.759  13.766  53.347
12735W        W 4659  28.240   6.240  50.143
12736W        W 4660  30.216  43.192  49.680
12737W        W 4661  31.224  27.750  51.512
12738W        W 4662  21.260   8.744  53.781
12739W        W 4663   3.751  15.753  52.420
12740W        W 4664  29.210  30.243  51.966
12741W        W 4665   4.748  10.252  52.875
12742W        W 4666  18.236  32.697  52.412
12743W        W 4667  12.261   0.749  51.077
12744W        W 4668  32.203  29.234  49.683
12745W        W 4669  15.232   9.266  51.052
12746W        W 4670  20.748  24.213  53.327
12747W        W 4671   7.238  18.246  51.988
12748W        W 4672   6.243  42.712  49.668
12749W        W 4673  24.742  13.277  51.527
12750W        W 4674  21.215  39.225  52.422
12751W        W 4675   4.752  14.761  51.506
12752W        W 4676  21.739  16.748  52.877
12753W        W 4677   2.285  45.681  51.502
12754W        W 4678  32.710  33.743  52.890
12755W        W 4679  43.227   9.274  52.875
12756W        W 4680  17.262  39.697  53.330
12757W        W 4681   8.258   4.758  52.860
12758W        W 4682  16.743  18.735  52.868
12759W        W 4683  41.182  19.762  53.786
12760W        W 4684  17.260  27.741  49.666
12761W        W 4685  44.710  11.264  53.359
12762W        W 4686  18.263  35.739  51.949
12763W        W 4687   0.770  31.238  51.972
12764W        W 4688  11.777  19.732  52.901
12765W        W 4689  34.225  37.705  51.058
12766W        W 4690  26.750  42.215  50.589
12767W        W 4691  10.734   1.251  50.622
12768W        W 4692   5.781  41.214  50.617
12769W        W 4693   5.244   0.761  53.779
12770W        W 4694  19.726  25.752  53.329
12771W        W 4695   6.759  27.723  49.680
12772W        W 4696  18.241  16.738  50.593
12773W        W 4697  15.738   7.246  51.508
12774W        W 4698  13.729  17.733  52.874
12775W        W 4699  23.238  17.229  49.705
12776W        W 4700  14.773  11.252  52.447
12777W        W 4701  34.705  28.243  51.983
12778W        W 4702  40.210  24.219  53.346
12779W        W 4703  38.206  22.239  51.986
12780W        W 4704  47.178   2.267  49.706
12781W        W 4705  30.211  32.203  50.126
12782W        W 4706  25.726  42.206  51.988
12783W        W 4707  30.723  13.237  49.680
12784W        W 4708  44.224  27.746  52.903
12785W        W 4709  27.732  12.757  52.898
12786W        W 4710  41.189  21.230  52.885
12787W        W 4711  12.236   6.267  51.050
12788W        W 4712  40.720  47.207  49.691
12789W        W 4713   8.269  36.227  52.876
12790W        W 4714   7.245   4.768  52.895
12791W        W 4715  21.226  31.722  50.125
12792W        W 4716  42.230  21.219  52.433
12793W        W 4717  43.218   2.755  49.683
12794W        W 4718  10.742   9.769  51.074
12795W        W 4719   5.755  28.226  51.961
12796W        W 4720  11.244  11.273  52.421
12797W        W 4721  40.206   2.262  52.873
12798W        W 4722  23.725  15.251  51.503
12799W        W 4723  44.720   6.269  53.353
12800W        W 4724   4.744  21.238  52.901
12801W        W 4725  26.740   8.265  52.406
12802W        W 4726  40.212   5.777  52.421
12803W        W 4727   5.774  29.734  49.666
12804W        W 4728  34.210  34.712  52.430
12805W        W 4729  35.706  43.206  52.870
12806W        W 4730   5.291  40.718  51.053
12807W        W 4731  37.697  23.241  53.805
12808W        W 4732  24.228  13.740  51.076
12809W        W 4733  44.690  27.727  50.602
12810W        W 4734  26.248  14.234  53.346
12811W        W 4735   2.746  34.213  53.326
12812W        W 4736  38.706   7.757  51.507
12813W        W 4737  19.222   6.283  53.329
12814W        W 4738   2.789  38.709  52.871
12815W        W 4739  29.218  32.223  50.142
12816W        W 4740  10.262  26.225  53.321
12817W        W 4741  24.745  24.250  53.774
12818W        W 4742  35.200   5.755  52.432
12819W        W 4743  36.692  24.238  53.813
12820W        W 4744  18.262  11.237  53.341
12821W        W 4745  30.736  16.770  50.617
12822W        W 4746  26.741  33.201  50.620
12823W        W 4747  32.232  32.205  50.591
12824W        W 4748  19.258   4.791  51.507
12825W        W 4749  28.239  21.227  50.588
12826W        W 4750   3.255   1.786  51.946
12827W        W 4751  18.253  26.755  52.899
12828W        W 4752  20.738  27.244  53.356
12829W        W 4753  40.699  28.225  49.677
12830W        W 4754  48.219  32.238  52.872
12831W        W 4755  20.258  44.700  49.682
12832W        W 4756  12.244  17.733  52.900
12833W        W 4757  15.761  29.750  50.124
12834W        W 4758  23.236  31.714  53.800
12835W        W 4759  40.689  28.730  50.593
12836W        W 4760  42.228  13.235  51.051
12837W        W 4761   5.753  18.725  53.331
12838W        W 4762  23.714  40.186  49.703
12839W        W 4763  23.734  31.207  52.437
12840W        W 4764  32.212  13.760  50.589
12841W        W 4765  13.230  23.743  50.158
12842W        W 4766  27.214  10.779  51.063
12843W        W 4767  23.725   6.754  53.785
12844W        W 4768  24.730  30.231  51.524
12845W        W 4769  42.680  17.253  51.525
12846W        W 4770   8.753  20.241  50.589
12847W        W 4771  32.702  13.763  53.796
12848W        W 4772  12.760  13.752  52.412
12849W        W 4773  42.698  30.738  51.958
12850W        W 4774  41.191  39.213  50.165
12851W        W 4775  41.721  33.739  52.432
12852W        W 4776  10.282  43.197  51.500
12853W        W 4777  18.747  11.749  51.050
12854W        W 4778   9.247  28.208  50.135
12855W        W 4779   8.247   9.776  50.123
12856W        W 4780   0.756  10.766  52.432
12857W        W 4781  11.252   7.743  52.423
12858W        W 4782  33.736  35.731  51.952
12859W        W 4783  35.735  27.747  49.709
12860W        W 4784  25.710  40.196  49.706
12861W        W 4785  35.223  46.679  51.068
12862W        W 4786  30.727  46.193  53.814
12863W        W 4787  35.721  31.245  51.048
12864W        W 4788  28.221  43.207  51.972
12865W        W 4789  16.765  37.234  50.152
12866W        W 4790  45.179   5.261  51.049
12867W        W 4791   9.266   8.257  53.341
12868W        W 4792  33.204  40.685  51.076
12869W        W 4793  18.249  48.199  49.701
12870W        W 4794  45.691  11.740  52.861
12871W        W 4795  17.770  41.213  52.872
12872W        W 4796  25.732  34.195  51.509
12873W        W 4797  37.226   1.793  50.134
12874W        W 4798  26.723   7.240  50.124
12875W        W 4799   1.290   8.752  53.348
12876W        W 4800  46.681  24.730  49.700
12877W        W 4801   3.284   8.238  52.418
12878W        W 4802  24.217  14.256  53.781
12879W        W 4803  35.215  40.220  52.436
12880W        W 4804  30.745   0.292  50.592
12881W        W 4805  13.728   8.758  52.410
12882W        W 4806  33.206  44.184  51.948
12883W        W 4807  26.228   3.788  49.689
12884W        W 4808  21.735  45.182  51.979
12885W        W 4809  45.217   3.292  50.614
12886W        W 4810  26.750  12.778  53.776
12887W        W 4811  21.739  39.217  52.440
12888W        W 4812   4.251  12.737  50.612
12889W        W 4813  10.736   8.270  51.960
12890W        W 4814  18.758  29.217  53.786
12891W        W 4815  35.210   9.253  53.810
12892W        W 4816  38.720  18.266  51.057
12893W        W 4817  25.710   9.258  49.668
12894W        W 4818  15.761   4.251  50.140
12895W        W 4819  45.685  12.757  50.619
12896W        W 4820  15.236  27.218  51.507
12897W        W 4821  29.232  46.209  52.863
12898W        W 4822  38.228  46.211  52.442
12899W        W 4823  11.750   8.256  53.332
12900W        W 4824  45.197   1.265  51.980
12901W        W 4825  10.773  47.186  53.323
12902W        W 4826  15.729  28.219  50.584
12903W        W 4827  31.744  36.197  52.895
12904W        W 4828  28.204  44.199  51.976
12905W        W 4829   6.272  17.268  50.582
12906W        W 4830   8.743  32.712  51.056
12907W        W 4831   0.255   2.777  52.892
12908W        W 4832   1.298  45.720  51.974
12909W        W 4833   9.743  34.224  53.801
12910W        W 4834  33.696  20.238  52.406
12911W        W 4835  24.218  16.732  51.504
12912W        W 4836   6.245  46.718  49.667
12913W        W 4837  27.747  38.695  49.687
12914W        W 4838  33.220  39.196  50.148
12915W        W 4839  36.206  20.747  49.673
12916W        W 4840  20.719  48.198  51.520
12917W        W 4841   0.282  44.722  50.586
12918W        W 4842   4.781  32.729  50.154
12919W        W 4843  31.743  15.764  49.669
12920W        W 4844  33.230  35.232  50.132
12921W        W 4845  29.724  14.761  53.352
12922W        W 4846  25.243  37.719  51.514
12923W        W 4847   9.781  46.710  50.590
12924W        W 4848  45.191  37.228  53.772
12925W        W 4849   9.761  18.252  52.863
12926W        W 4850  18.240  13.739  51.510
12927W        W 4851   6.279  40.708  52.413
12928W        W 4852  26.210   2.757  49.674
12929W        W 4853  28.704   9.748  52.433
12930W        W 4854   7.764  21.222  51.965
12931W        W 4855  40.191  31.210  51.515
12932W        W 4856  36.227  19.221  52.887
12933W        W 4857  37.228  36.721  52.894
12934W        W 4858  41.216  29.240  52.863
12935W        W 4859  18.763  27.705  52.440
12936W        W 4860  30.721  17.245  53.791
12937W        W 4861  20.743  17.237  52.417
12938W        W 4862   3.251  31.710  53.805
12939W        W 4863  27.747  30.221  50.151
12940W        W 4864  48.200   4.744  51.044
12941W        W 4865  46.708   4.249  51.069
12942W        W 4866  33.200  35.194  51.071
12943W        W 4867  41.724  30.249  50.153
12944W        W 4868  18.243  44.689  50.613
12945W        W 4869  15.248  26.253  50.148
12946W        W 4870   5.253  11.734  51.968
12947W        W 4871  37.219  46.681  53.810
12948W        W 4872  23.721  14.260  52.422
12949W        W 4873  32.710  43.208  49.680
12950W        W 4874   7.254  20.260  53.812
12951W        W 4875   5.246   0.272  51.508
12952W        W 4876  43.686  47.190  53.790
12953W        W 4877  26.228  13.244  51.521
12954W        W 4878  39.234  19.722  50.610
12955W        W 4879  25.214  40.199  53.790
12956W        W 4880   7.287  22.241  50.618
12957W        W 4881  20.737  47.221  51.501
12958W        W 4882  39.731  46.204  50.150
12959W        W 4883   3.264  44.207  50.581
12960W        W 4884  42.205  34.234  53.807
12961W        W 4885  21.241   2.789  53.361
12962W        W 4886  27.210   8.278  50.583
12963W        W 4887  41.219  33.702  53.777
12964W        W 4888  12.239   0.283  52.416
12965W        W 4889  28.234  37.689  49.693
12966W        W 4890  37.202  44.687  51.987
12967W        W 4891  33.216  45.679  50.124
12968W        W 4892  19.261  42.723  50.132
12969W        W 4893  29.735   1.760  50.578
12970W        W 4894  33.711   3.792  50.583
12971W        W 4895   0.782  37.236  53.329
12972W        W 4896  42.198  46.179  51.495
12973W        W 4897  46.201  33.717  53.334
12974W        W 4898  13.268  17.224  50.161
12975W        W 4899  10.743  35.239  51.511
12976W        W 4900   4.281  26.750  52.430
12977W        W 4901  23.714  23.719  51.038
12978W        W 4902  35.735  39.225  51.519
12979W        W 4903  26.228  14.238  51.069
12980W        W 4904  42.689   5.271  50.612
12981W        W 4905  41.194   3.784  51.053
12982W        W 4906  18.730   5.274  50.621
12983W        W 4907  17.260  25.728  50.589
12984W        W 4908  30.213  40.207  53.329
12985W        W 4909   7.242  20.761  51.041
12986W        W 4910  22.249  39.211  50.621
12987W        W 4911  43.706  29.224  50.608
12988W        W 4912  28.217  20.266  53.346
12989W        W 4913  43.683  21.721  51.983
12990W        W 4914  39.733   1.780  52.429
12991W        W 4915  14.271  41.228  49.704
12992W        W 4916  30.718  29.216  52.875
12993W        W 4917  28.730   1.795  53.782
12994W        W 4918  17.760   5.779  50.598
12995W        W 4919  34.236   4.779  49.682
12996W        W 4920  14.774  13.256  53.344
12997W        W 4921   0.765  37.698  53.322
12998W        W 4922  39.187  16.270  52.868
12999W        W 4923   2.267  48.211  52.887
13000W        W 4924  26.721  21.243  53.809
13001W        W 4925  15.753  40.709  51.063
13002W        W 4926  39.690  40.701  51.989
13003W        W 4927   1.249  35.225  51.531
13004W        W 4928  22.740  37.713  50.620
13005W        W 4929  34.224   1.269  53.780
13006W        W 4930  47.687  26.709  51.967
13007W        W 4931  26.738  46.707  53.813
13008W        W 4932  27.209  44.697  51.036
13009W        W 4933  26.746  34.701  53.338
13010W        W 4934   3.763  39.731  51.520
13011W        W 4935  32.234  19.246  50.593
13012W        W 4936  43.210  39.208  51.054
13013W        W 4937   3.294  21.727  51.516
13014W        W 4938  13.249  16.760  52.875
13015W        W 4939  45.686  33.704  49.670
13016W        W 4940  21.742  19.267  52.424
13017W        W 4941  24.737  18.732  50.592
13018W        W 4942  30.213  43.215  52.899
13019W        W 4943  41.708  18.750  51.983
13020W        W 4944  11.264  30.711  52.443
13021W        W 4945  36.724  28.713  49.687
13022W        W 4946  18.247  43.217  50.145
13023W        W 4947  40.691   0.285  51.064
13024W        W 4948  19.228   8.272  50.585
13025W        W 4949  11.752  32.212  52.879
13026W        W 4950  21.232  12.757  51.947
13027W        W 4951  13.247  19.259  50.609
13028W        W 4952   8.253  43.692  51.046
13029W        W 4953  41.705  38.705  50.615
13030W        W 4954  12.275  15.762  51.521
13031W        W 4955  31.225  12.766  50.135
13032W        W 4956  25.232  42.192  53.341
13033W        W 4957  43.692  39.228  52.437
13034W        W 4958  16.273  25.242  49.668
13035W        W 4959  34.739  12.244  50.139
13036W        W 4960  35.235  23.213  53.781
13037W        W 4961  44.713  33.736  49.699
13038W        W 4962   2.780   8.778  51.969
13039W        W 4963  10.776  45.223  50.617
13040W        W 4964  28.747   8.271  51.963
13041W        W 4965  28.251  37.234  52.441
13042W        W 4966  11.743  31.243  51.980
13043W        W 4967   1.786  33.713  51.970
13044W        W 4968  38.712  24.731  52.889
13045W        W 4969   5.749  20.761  52.885
13046W        W 4970  36.697  31.223  51.966
13047W        W 4971   9.275  13.753  51.048
13048W        W 4972  29.239  20.246  50.618
13049W        W 4973  26.226  47.716  50.130
13050W        W 4974  41.224  47.213  51.952
13051W        W 4975  45.699  14.748  53.777
13052W        W 4976  10.736  30.221  51.058
13053W        W 4977   3.245  46.193  49.705
13054W        W 4978  27.230  15.257  51.511
13055W        W 4979  23.244  17.740  52.434
13056W        W 4980   3.771  20.237  51.968
13057W        W 4981  38.729  38.709  51.505
13058W        W 4982  43.701   9.271  52.899
13059W        W 4983  39.202  34.736  51.046
13060W        W 4984  17.256  35.195  53.791
13061W        W 4985  28.741  20.748  50.611
13062W        W 4986  26.215  22.761  53.328
13063W        W 4987  12.737   8.749  50.610
13064W        W 4988  14.729  11.239  50.610
13065W        W 4989   7.263  46.209  51.502
13066W        W 4990  25.756  41.195  52.891
13067W        W 4991   3.776  38.704  49.702
13068W        W 4992  45.684  43.219  53.795
13069W        W 4993  22.250  41.717  53.802
13070W        W 4994   5.271  26.210  50.142
13071W        W 4995   3.768  33.212  53.349
13072W        W 4996  29.744   5.787  53.809
13073W        W 4997  28.740  24.757  53.817
13074W        W 4998   4.287  21.746  49.678
13075W        W 4999  37.708  28.246  51.500
13076W        W 5000  27.221  17.226  51.532
13077W        W 5001  44.697  32.198  51.982
13078W        W 5002  31.747  20.750  53.777
13079W        W 5003  26.226  16.228  51.527
13080W        W 5004   0.768  34.229  52.864
13081W        W 5005  37.219  38.688  51.977
13082W        W 5006  16.233  13.238  51.983
13083W        W 5007   8.746   5.769  51.966
13084W        W 5008   5.748   6.253  51.972
13085W        W 5009  33.204  38.236  50.127
13086W        W 5010  23.756  30.748  52.892
13087W        W 5011  29.730  38.231  50.154
13088W        W 5012   0.296  31.717  50.126
13089W        W 5013  20.237  10.264  51.514
13090W        W 5014   1.761  39.201  50.124
13091W        W 5015  29.722  45.678  53.810
13092W        W 5016  34.709   7.739  51.071
13093W        W 5017   9.767  20.745  49.697
13094W        W 5018  25.224  46.699  53.792
13095W        W 5019  19.746  11.779  53.347
13096W        W 5020  23.721  22.246  52.904
13097W        W 5021  39.190  15.745  53.342
13098W        W 5022  14.261  42.227  52.886
13099W        W 5023  48.178  46.693  50.594
13100W        W 5024  39.190   7.269  50.603
13101W        W 5025   6.270   0.296  53.813
13102W        W 5026  24.225  17.751  51.055
13103W        W 5027  18.223  11.276  52.409
13104W        W 5028   3.245  26.241  53.357
13105W        W 5029  27.722  40.199  49.698
13106W        W 5030   6.275  20.219  53.326
13107W        W 5031  47.701  18.732  49.687
13108W        W 5032  15.745  34.216  50.134
13109W        W 5033  21.264  15.251  52.445
13110W        W 5034  45.177   4.246  53.815
13111W        W 5035  25.216  25.241  50.165
13112W        W 5036  31.741  26.211  53.807
13113W        W 5037   1.256  34.241  51.963
13114W        W 5038  27.212  30.719  52.870
13115W        W 5039   3.755  32.707  53.817
13116W        W 5040  30.703  23.748  51.077
13117W        W 5041  15.736  44.206  52.447
13118W        W 5042   8.747   8.262  53.352
13119W        W 5043  38.198  23.243  52.903
13120W        W 5044  40.722  32.720  52.447
13121W        W 5045   1.260   2.746  51.042
13122W        W 5046  32.716  34.730  50.151
13123W        W 5047  24.718  18.249  52.413
13124W        W 5048  43.205  17.765  52.892
13125W        W 5049  37.723  29.706  51.523
13126W        W 5050  37.711  24.735  52.901
13127W        W 5051  39.210  43.696  50.125
13128W        W 5052  24.258  48.174  51.515
13129W        W 5053  38.229  10.753  53.322
13130W        W 5054  27.227  42.684  51.072
13131W        W 5055  17.756  46.695  52.434
13132W        W 5056   7.756   3.261  51.071
13133W        W 5057  19.243   9.772  50.611
13134W        W 5058   5.743   1.281  52.879
13135W        W 5059  26.219  27.210  53.782
13136W        W 5060  18.748  45.197  53.322
13137W        W 5061  23.754  33.207  53.780
13138W        W 5062  10.778   6.743  51.963
13139W        W 5063  20.220  30.207  49.671
13140W        W 5064  17.267  46.206  50.613
13141W        W 5065  41.730  25.256  51.963
13142W        W 5066  43.205   2.253  51.948
13143W        W 5067  37.712  41.721  51.507
13144W        W 5068  18.251   6.744  53.322
13145W        W 5069  14.745  20.727  49.685
13146W        W 5070  46.196  35.736  52.872
13147W        W 5071  37.224  19.246  50.123
13148W        W 5072  18.763   1.261  53.336
13149W        W 5073  32.739  18.260  50.582
13150W        W 5074  26.712  31.236  52.883
13151W        W 5075  35.695  24.215  52.439
13152W        W 5076  39.716  40.206  52.447
13153W        W 5077   6.251  45.181  50.578
13154W        W 5078  18.238  19.724  53.782
13155W        W 5079  22.242  11.749  52.416
13156W        W 5080   1.266   3.259  51.522
13157W        W 5081  18.744  42.195  49.694
13158W        W 5082  27.252   2.788  51.954
13159W        W 5083  36.231  44.688  50.577
13160W        W 5084  37.735  37.702  51.988
13161W        W 5085  41.211   2.793  53.330
13162W        W 5086  33.209  15.248  52.444
13163W        W 5087  15.271  48.176  52.901
13164W        W 5088  34.706   8.252  50.126
13165W        W 5089  18.236   4.250  49.705
13166W        W 5090  37.727   7.257  50.619
13167W        W 5091  45.193  12.265  50.579
13168W        W 5092  42.685   2.256  50.127
13169W        W 5093  42.715  15.763  53.334
13170W        W 5094  41.220  24.230  53.773
13171W        W 5095  19.226  40.713  52.419
13172W        W 5096  13.751   6.749  53.319
13173W        W 5097   4.246  13.236  53.343
13174W        W 5098   6.241   4.756  53.776
13175W        W 5099   9.239  31.223  50.144
13176W        W 5100  40.185  38.189  52.435
13177W        W 5101  13.239  16.731  50.143
13178W        W 5102  36.199  42.225  51.508
13179W        W 5103  33.722  14.252  52.863
13180W        W 5104  12.278  26.736  53.346
13181W        W 5105  12.244  43.226  53.789
13182W        W 5106  37.224  11.755  53.803
13183W        W 5107  20.742  37.210  51.060
13184W        W 5108  24.232  26.749  51.035
13185W        W 5109  25.223  34.727  53.774
13186W        W 5110   8.273  28.230  51.991
13187W        W 5111  43.686  47.695  49.683
13188W        W 5112  19.260  29.740  50.617
13189W        W 5113  12.244  32.227  51.532
13190W        W 5114  23.220  17.722  50.621
13191W        W 5115   4.766   6.758  52.418
13192W        W 5116  24.714  35.692  50.163
13193W        W 5117  36.712  32.701  51.971
13194W        W 5118  19.262   2.777  51.963
13195W        W 5119  40.718  21.720  50.581
13196W        W 5120  40.711  21.718  51.970
13197W        W 5121  23.234  28.744  49.710
13198W        W 5122  36.195  36.707  53.816
13199W        W 5123  45.681  47.692  50.144
13200W        W 5124  32.210  14.266  52.431
13201W        W 5125  43.713  27.237  50.152
13202W        W 5126   6.261  37.237  52.420
13203W        W 5127  17.259  17.262  52.411
13204W        W 5128   4.276  47.202  50.148
13205W        W 5129   9.238  45.188  53.809
13206W        W 5130  37.690  32.699  53.317
13207W        W 5131  39.685  35.242  52.892
13208W        W 5132  27.224  19.721  51.064
13209W        W 5133   6.755  25.715  53.350
13210W        W 5134  11.271  23.737  52.863
13211W        W 5135   6.774   0.765  50.600
13212W        W 5136  17.231   9.741  51.497
13213W        W 5137  47.200  44.717  51.967
13214W        W 5138  44.187  12.769  51.510
13215W        W 5139  31.727  13.755  50.615
13216W        W 5140  46.685  14.238  53.772
13217W        W 5141  11.767   1.255  53.814
13218W        W 5142  36.238  34.221  52.408
13219W        W 5143   7.747   0.794  51.058
13220W        W 5144   2.769   4.760  50.600
13221W        W 5145  10.782   3.253  53.337
13222W        W 5146  37.702  23.759  49.676
13223W        W 5147  35.236  13.234  53.799
13224W        W 5148  43.223   5.244  50.140
13225W        W 5149  29.709  43.221  50.586
13226W        W 5150  34.209  15.258  52.422
13227W        W 5151  16.253  43.220  52.413
13228W        W 5152  43.181  29.748  53.803
13229W        W 5153  43.720  17.722  51.046
13230W        W 5154  33.214  10.763  53.316
13231W        W 5155  44.208  18.760  50.597
13232W        W 5156  20.759  25.718  53.342
13233W        W 5157  26.231  42.196  53.808
13234W        W 5158  17.723  36.232  51.072
13235W        W 5159  38.227  47.206  51.979
13236W        W 5160   6.775   5.286  51.534
13237W        W 5161  25.230  27.708  49.668
13238W        W 5162  21.242   0.752  51.961
13239W        W 5163  42.713  24.226  53.346
13240W        W 5164  39.685  45.693  51.991
13241W        W 5165  18.261   6.269  53.350
13242W        W 5166   5.753  27.751  51.034
13243W        W 5167   5.790   0.782  51.978
13244W        W 5168   4.765  44.695  53.346
13245W        W 5169  29.231   6.260  51.041
13246W        W 5170  27.707  32.743  49.668
13247W        W 5171  12.740  10.249  53.325
13248W        W 5172   9.283  12.239  53.775
13249W        W 5173  39.698  13.750  53.796
13250W        W 5174  24.726  19.233  53.317
13251W        W 5175   4.283   6.282  50.612
13252W        W 5176  45.696  11.751  49.672
13253W        W 5177  19.259  36.235  52.406
13254W        W 5178  19.753  27.238  53.340
13255W        W 5179  25.231  29.251  50.122
13256W        W 5180  25.245  44.687  52.423
13257W        W 5181  25.256  14.763  49.682
13258W        W 5182   1.791  25.256  51.067
13259W        W 5183  41.202   6.773  53.809
13260W        W 5184   7.743  12.733  52.442
13261W        W 5185  37.207  14.775  50.121
13262W        W 5186   3.245  37.737  52.883
13263W        W 5187  44.726   5.769  51.052
13264W        W 5188  39.707  13.274  50.619
13265W        W 5189   1.293   9.772  51.039
13266W        W 5190   3.783  26.239  49.694
13267W        W 5191  32.707  13.235  51.069
13268W        W 5192  28.742  32.213  50.145
13269W        W 5193  38.216  34.206  49.679
13270W        W 5194  41.684   4.778  51.974
13271W        W 5195  19.719  41.230  53.346
13272W        W 5196   9.244  32.710  53.796
13273W        W 5197  14.761  15.751  51.501
13274W        W 5198   7.283   5.255  51.969
13275W        W 5199  13.776  14.743  53.358
13276W        W 5200  10.780  24.748  51.970
13277W        W 5201  31.244  39.705  52.895
13278W        W 5202   0.270  31.711  53.339
13279W        W 5203   7.777  47.674  53.346
13280W        W 5204  32.735  13.231  51.956
13281W        W 5205  10.761  45.720  50.614
13282W        W 5206  44.200  43.195  51.507
13283W        W 5207  28.724   6.755  53.340
13284W        W 5208  21.241  40.213  51.532
13285W        W 5209  22.251  13.749  52.898
13286W        W 5210  44.718  41.709  52.404
13287W        W 5211  20.742   4.252  53.808
13288W        W 5212  38.234  43.708  51.047
13289W        W 5213  10.744  28.713  52.414
13290W        W 5214  47.174  17.752  52.422
13291W        W 5215  19.736   8.738  50.136
13292W        W 5216  40.721  40.204  51.036
13293W        W 5217  28.239  26.724  50.138
13294W        W 5218  29.218   8.284  51.036
13295W        W 5219  36.726  41.218  51.494
13296W        W 5220  15.756   1.263  53.347
13297W        W 5221  26.209   8.237  51.061
13298W        W 5222  29.734  44.705  49.666
13299W        W 5223  36.719  43.224  49.673
13300W        W 5224  42.708  19.746  53.816
13301W        W 5225  28.733  45.712  49.700
13302W        W 5226  36.225  15.225  53.799
13303W        W 5227   8.756  48.220  52.433
13304W        W 5228  43.224  23.732  51.988
13305W        W 5229   9.252  38.688  52.860
13306W        W 5230   0.786  20.719  53.809
13307W        W 5231  38.200  35.723  50.155
13308W        W 5232  30.700  13.761  52.417
13309W        W 5233  26.212  30.243  50.130
13310W        W 5234  13.758  41.710  49.676
13311W        W 5235  36.738  18.259  52.860
13312W        W 5236  47.696  29.747  50.593
13313W        W 5237   9.743  13.235  52.868
13314W        W 5238  29.745   5.768  52.868
13315W        W 5239  40.717  19.736  52.888
13316W        W 5240  30.714   6.783  51.974
13317W        W 5241  41.708  29.709  53.797
13318W        W 5242   9.279  27.250  52.412
13319W        W 5243  37.226   4.244  51.961
13320W        W 5244   5.775  28.251  52.403
13321W        W 5245  37.190  46.706  50.149
13322W        W 5246  17.751  47.673  51.047
13323W        W 5247  48.202   7.266  53.800
13324W        W 5248  38.696   4.246  51.034
13325W        W 5249  35.715  36.220  50.163
13326W        W 5250  46.682  30.229  50.139
13327W        W 5251  14.272  38.222  52.415
13328W        W 5252  20.237  47.718  51.959
13329W        W 5253   7.777  33.737  51.066
13330W        W 5254  25.252  15.272  51.522
13331W        W 5255   0.787   6.753  52.860
13332W        W 5256  35.198   8.254  50.142
13333W        W 5257   0.298  22.744  50.579
13334W        W 5258   0.757  25.245  49.691
13335W        W 5259  24.242  31.237  51.065
13336W        W 5260  36.240  13.772  51.963
13337W        W 5261  25.709  45.683  51.502
13338W        W 5262  27.719  27.216  52.429
13339W        W 5263  10.272  28.744  51.049
13340W        W 5264  27.238  27.250  49.673
13341W        W 5265  43.718  36.722  52.441
13342W        W 5266  31.220  20.747  52.862
13343W        W 5267  41.197  31.206  52.873
13344W        W 5268  16.726  40.731  51.060
13345W        W 5269  35.218  44.715  51.959
13346W        W 5270  25.718  47.680  52.879
13347W        W 5271   2.764  23.750  49.687
13348W        W 5272   9.750  47.176  52.895
13349W        W 5273   7.775  35.205  53.360
13350W        W 5274   1.270   1.258  52.404
13351W        W 5275   7.273  23.713  50.126
13352W        W 5276  45.688  22.248  53.801
13353W        W 5277  21.755  39.707  49.683
13354W        W 5278  27.209  39.733  51.078
13355W        W 5279   7.263   0.282  51.061
13356W        W 5280   3.248  44.195  53.780
13357W        W 5281   9.779  46.202  51.962
13358W        W 5282  13.731  16.268  49.686
13359W        W 5283  15.765  28.231  49.710
13360W        W 5284   6.756  12.739  51.980
13361W        W 5285  14.741  19.758  50.610
13362W        W 5286  41.222   5.247  52.894
13363W        W 5287  20.229  21.264  50.165
13364W        W 5288  27.710  39.702  50.128
13365W        W 5289   4.263  18.231  52.403
13366W        W 5290   2.774  16.762  53.352
13367W        W 5291  21.257   8.277  53.347
13368W        W 5292  15.758  23.725  51.519
13369W        W 5293  43.698  11.235  52.895
13370W        W 5294  20.233  28.742  52.900
13371W        W 5295  39.702  26.719  50.583
13372W        W 5296  20.254  44.224  50.579
13373W        W 5297   5.744  21.721  50.150
13374W        W 5298   7.258  30.231  49.699
13375W        W 5299  19.266  40.222  53.804
13376W        W 5300   9.240  22.730  52.870
13377W        W 5301  23.230  10.253  50.134
13378W        W 5302  46.705  34.741  51.496
13379W        W 5303  37.698  27.727  52.870
13380W        W 5304  28.240  38.716  53.778
13381W        W 5305  12.257  12.266  52.870
13382W        W 5306  44.724  32.238  52.893
13383W        W 5307  18.242  10.747  51.066
13384W        W 5308  46.721  41.726  51.971
13385W        W 5309  33.205  29.702  50.609
13386W        W 5310  10.262  42.716  53.779
13387W        W 5311  28.204  32.199  51.062
13388W        W 5312  35.197   3.762  51.058
13389W        W 5313   5.763  18.230  51.053
13390W        W 5314   4.773  27.741  51.518
13391W        W 5315   2.771  36.725  49.681
13392W        W 5316  10.753  43.702  51.965
13393W        W 5317  13.745  34.196  51.495
13394W        W 5318   1.783   3.791  51.968
13395W        W 5319  25.244  24.210  51.034
13396W        W 5320  18.753  23.246  50.160
13397W        W 5321  18.236  46.680  53.812
13398W        W 5322  31.222  23.723  49.681
13399W        W 5323  43.194  23.734  53.341
13400W        W 5324   8.249   6.768  53.357
13401W        W 5325  21.716  47.173  53.354
13402W        W 5326   0.263   4.781  51.509
13403W        W 5327  40.688  19.261  52.868
13404W        W 5328  35.227  48.177  53.324
13405W        W 5329   3.262  43.194  51.040
13406W        W 5330  19.724  18.742  50.588
13407W        W 5331  36.208  26.255  50.163
13408W        W 5332  35.197  38.232  51.984
13409W        W 5333  42.185   1.262  53.350
13410W        W 5334  14.745   3.273  50.590
13411W        W 5335  24.239   9.781  51.520
13412W        W 5336  34.218  11.255  49.698
13413W        W 5337  36.712  38.690  53.817
13414W        W 5338  28.252  13.272  52.899
13415W        W 5339  27.208  15.258  49.677
13416W        W 5340  48.187  29.214  52.425
13417W        W 5341  11.261  27.236  51.063
13418W        W 5342  25.235  19.722  53.333
13419W        W 5343  40.198  46.223  51.521
13420W        W 5344  12.778   6.258  53.801
13421W        W 5345   3.759  46.195  50.134
13422W        W 5346  25.754   2.780  53.339
13423W        W 5347   6.279  36.209  50.139
13424W        W 5348  35.197  28.223  51.503
13425W        W 5349  29.722   5.759  50.608
13426W        W 5350   5.249  25.739  50.613
13427W        W 5351  12.740  36.229  52.440
13428W        W 5352   3.255  15.273  49.691
13429W        W 5353  21.225  13.243  51.983
13430W        W 5354  33.234   2.265  50.579
13431W        W 5355   6.241   8.249  52.406
13432W        W 5356  29.716   1.271  53.359
13433W        W 5357  31.743   2.294  50.143
13434W        W 5358   8.755  19.239  51.534
13435W        W 5359  21.749   1.781  49.694
13436W        W 5360   4.249  41.217  53.786
13437W        W 5361  36.232   0.298  51.991
13438W        W 5362  12.758   3.789  50.149
13439W        W 5363  25.225  12.263  50.129
13440W        W 5364   1.281  23.239  51.059
13441W        W 5365  10.264  42.716  51.036
13442W        W 5366   7.249  36.223  52.879
13443W        W 5367  38.695  27.707  50.577
13444W        W 5368  34.703  19.731  52.892
13445W        W 5369  21.734   4.778  53.773
13446W        W 5370  33.201  35.738  49.667
13447W        W 5371   8.751  22.220  53.325
13448W        W 5372  11.243   4.255  53.810
13449W        W 5373  22.731  32.223  50.607
13450W        W 5374  40.187  30.207  51.967
13451W        W 5375  42.212   3.780  50.154
13452W        W 5376  35.203  15.251  52.431
13453W        W 5377  23.732  29.238  50.139
13454W        W 5378  35.239   2.786  51.528
13455W        W 5379   2.757  16.731  52.877
13456W        W 5380  23.241   5.789  52.868
13457W        W 5381  22.737  36.230  53.808
13458W        W 5382   4.272   3.754  50.591
13459W        W 5383  20.236  12.247  52.903
13460W        W 5384  23.215  21.757  51.970
13461W        W 5385  20.257  18.232  50.166
13462W        W 5386  20.220  12.275  52.409
13463W        W 5387  19.741  42.720  53.346
13464W        W 5388   6.760  32.221  49.684
13465W        W 5389  25.745  22.227  52.405
13466W        W 5390  26.227   8.264  51.987
13467W        W 5391  11.768   8.245  52.876
13468W        W 5392  20.224  19.239  52.431
13469W        W 5393   0.754  29.225  51.947
13470W        W 5394  36.230  15.273  52.864
13471W        W 5395   7.241  12.752  50.130
13472W        W 5396  44.677  34.710  51.038
13473W        W 5397  10.772  32.729  50.612
13474W        W 5398  12.742  11.745  51.950
13475W        W 5399  13.777   5.283  52.423
13476W        W 5400  20.759  26.734  52.419
13477W        W 5401  23.731   0.297  52.423
13478W        W 5402  41.707  38.228  51.963
13479W        W 5403  46.692  11.773  51.499
13480W        W 5404  27.238  37.217  50.144
13481W        W 5405  29.213  19.264  51.954
13482W        W 5406  15.262  29.248  52.890
13483W        W 5407   0.780   5.277  52.415
13484W        W 5408  46.177  48.210  50.158
13485W        W 5409  46.674  11.774  51.067
13486W        W 5410  38.190  26.726  52.428
13487W        W 5411   2.285  47.704  51.515
13488W        W 5412  17.728   4.774  51.525
13489W        W 5413  39.723  37.218  49.675
13490W        W 5414  31.701  45.685  53.780
13491W        W 5415  28.738  17.257  53.321
13492W        W 5416  44.211  10.771  51.049
13493W        W 5417   0.285   9.278  50.604
13494W        W 5418  45.216  26.226  51.535
13495W        W 5419  47.215  12.251  50.141
13496W        W 5420  21.744  40.717  53.334
13497W        W 5421  10.248  39.211  53.814
13498W        W 5422  41.182  27.717  51.495
13499W        W 5423  23.743  34.237  53.813
13500W        W 5424   1.779   2.794  51.969
13501W        W 5425  34.224   7.248  52.898
13502W        W 5426  10.752  32.729  52.443
13503W        W 5427  15.759   1.773  51.977
13504W        W 5428  27.753  14.746  51.991
13505W        W 5429  31.220  37.721  50.127
13506W        W 5430  33.732   6.283  51.972
13507W        W 5431  13.762  26.725  51.497
13508W        W 5432   3.758  40.215  49.684
13509W        W 5433   1.761  17.737  50.158
13510W        W 5434  46.197  47.216  53.360
13511W        W 5435   8.246  26.708  51.964
13512W        W 5436  21.738  27.220  50.611
13513W        W 5437  34.709   7.760  53.328
13514W        W 5438   8.782  19.748  53.778
13515W        W 5439   2.765   9.241  51.515
13516W        W 5440  24.728  24.249  52.882
13517W        W 5441  18.221  20.223  51.514
13518W        W 5442   2.776  42.682  52.431
13519W        W 5443  46.185  15.267  49.688
13520W        W 5444  17.226  15.751  50.138
13521W        W 5445   1.270  10.239  51.958
13522W        W 5446   7.741  39.207  50.145
13523W        W 5447   5.256  31.217  53.799
13524W        W 5448  37.731  21.750  50.127
13525W        W 5449  38.206  43.213  53.328
13526W        W 5450  40.726  15.767  52.901
13527W        W 5451   6.263  25.729  51.521
13528W        W 5452   9.743   9.757  52.409
13529W        W 5453   6.261   1.296  51.952
13530W        W 5454  41.209   2.286  51.985
13531W        W 5455  44.726   7.250  51.050
13532W        W 5456  42.695  23.257  52.442
13533W        W 5457  29.230  13.239  53.355
13534W        W 5458  33.228   1.268  52.446
13535W        W 5459  16.227   4.743  50.593
13536W        W 5460   4.749  43.227  53.345
13537W        W 5461  42.197   1.266  52.876
13538W        W 5462  40.187   2.252  51.036
13539W        W 5463  24.709  32.725  51.072
13540W        W 5464  17.231   9.271  52.865
13541W        W 5465  22.260  48.212  51.065
13542W        W 5466   9.254  40.715  52.878
13543W        W 5467   3.756  21.733  51.973
13544W        W 5468  43.181  25.246  51.041
13545W        W 5469  31.222  17.250  52.893
13546W        W 5470  21.261  40.716  52.423
13547W        W 5471  34.215  33.744  51.063
13548W        W 5472  15.737  27.248  53.342
13549W        W 5473  16.234  17.240  49.703
13550W        W 5474  28.710  21.255  50.141
13551W        W 5475  34.222   8.261  51.074
13552W        W 5476  28.736   7.243  51.977
13553W        W 5477   6.757  24.230  51.066
13554W        W 5478  34.699  12.761  51.524
13555W        W 5479   3.279  33.244  53.806
13556W        W 5480  46.175  37.224  52.895
13557W        W 5481  46.218   1.264  52.433
13558W        W 5482  11.238  32.220  52.419
13559W        W 5483  46.185  44.186  53.786
13560W        W 5484  16.246  48.203  52.437
13561W        W 5485   2.273  17.262  52.894
13562W        W 5486  24.734  45.185  49.690
13563W        W 5487  46.193  41.205  49.673
13564W        W 5488  14.259  12.741  51.528
13565W        W 5489  24.747  18.750  51.070
13566W        W 5490  36.226  36.208  50.583
13567W        W 5491  11.263   4.249  52.435
13568W        W 5492   2.268   8.764  51.037
13569W        W 5493  30.715  46.180  51.034
13570W        W 5494  15.772  44.210  51.970
13571W        W 5495  37.698  28.242  49.690
13572W        W 5496  16.272  47.213  51.502
13573W        W 5497  40.231  15.259  51.973
13574W        W 5498  28.734  40.729  50.161
13575W        W 5499  32.210  21.249  50.143
13576W        W 5500  28.738  36.237  51.063
13577W        W 5501   1.788  41.726  50.134
13578W        W 5502   9.769   3.284  52.421
13579W        W 5503  17.242  28.253  51.055
13580W        W 5504   4.781  33.730  53.784
13581W        W 5505  22.232  17.246  52.897
13582W        W 5506  30.724  28.741  50.146
13583W        W 5507   8.754  20.230  53.783
13584W        W 5508  31.725  29.211  50.599
13585W        W 5509  15.757  17.255  53.318
13586W        W 5510   2.275  17.240  50.152
13587W        W 5511   0.256  19.729  51.509
13588W        W 5512  22.215  15.252  53.349
13589W        W 5513  22.734   5.242  52.877
13590W        W 5514  37.733  40.694  50.149
13591W        W 5515  36.204  40.710  50.578
13592W        W 5516   0.757  37.198  49.668
13593W        W 5517  43.199  29.731  53.336
13594W        W 5518  42.198  38.705  52.899
13595W        W 5519  38.213  44.196  50.612
13596W        W 5520  32.232  29.226  51.535
13597W        W 5521  20.260  20.253  51.527
13598W        W 5522  37.705  45.684  51.039
13599W        W 5523  25.731  18.266  50.619
13600W        W 5524  22.730   2.286  50.617
13601W        W 5525  48.214  28.240  50.162
13602W        W 5526  23.721  29.721  52.879
13603W        W 5527   5.741  46.712  53.337
13604W        W 5528   7.276  21.760  51.512
13605W        W 5529  26.736  16.735  51.954
13606W        W 5530   0.767  34.704  49.686
13607W        W 5531  44.210   5.256  53.324
13608W        W 5532  18.242   1.255  53.780
13609W        W 5533  17.230  28.713  51.492
13610W        W 5534   7.747   5.783  50.129
13611W        W 5535  11.752  24.717  50.598
13612W        W 5536  43.725  18.732  49.673
13613W        W 5537  25.238  42.726  50.608
13614W        W 5538  26.248  40.694  50.165
13615W        W 5539  42.185  44.216  51.947
13616W        W 5540  13.760  45.720  51.490
13617W        W 5541   0.296  12.763  49.687
13618W        W 5542  28.721  15.236  51.979
13619W        W 5543   7.746  30.719  50.612
13620W        W 5544   3.275  45.701  52.448
13621W        W 5545  18.260   6.278  50.163
13622W        W 5546  28.237  41.230  50.579
13623W        W 5547   0.290   9.745  49.680
13624W        W 5548  34.694  30.228  53.800
13625W        W 5549  12.275  33.221  51.526
13626W        W 5550  24.723  33.233  51.971
13627W        W 5551  12.774  19.234  51.065
13628W        W 5552   5.268   7.242  50.606
13629W        W 5553  42.230  43.703  51.053
13630W        W 5554  34.241  11.269  51.495
13631W        W 5555  12.766  43.713  51.062
13632W        W 5556  24.750  24.243  53.352
13633W        W 5557  10.276  42.194  52.440
13634W        W 5558   6.280  26.210  51.494
13635W        W 5559  38.716   4.257  51.968
13636W        W 5560   3.280  29.749  50.122
13637W        W 5561  35.717  43.204  49.666
13638W        W 5562  17.741  42.191  50.125
13639W        W 5563  41.684   9.247  50.158
13640W        W 5564  34.707  31.206  53.361
13641W        W 5565   2.282   9.757  51.041
13642W        W 5566  19.751  18.244  51.051
13643W        W 5567  28.234  29.244  51.041
13644W        W 5568  32.737   4.271  51.062
13645W        W 5569  13.760  44.723  52.424
13646W        W 5570  36.206  39.214  49.673
13647W        W 5571  44.195  28.720  51.518
13648W        W 5572  30.747  35.198  49.695
13649W        W 5573  41.230  37.717  50.125
13650W        W 5574  42.729  33.706  52.439
13651W        W 5575   7.787   9.244  52.862
13652W        W 5576  39.197   2.770  51.056
13653W        W 5577  27.234   6.760  53.329
13654W        W 5578  27.705  48.183  51.055
13655W        W 5579  11.764  33.222  51.038
13656W        W 5580   0.768  34.223  49.696
13657W        W 5581  26.746  10.776  50.593
13658W        W 5582  45.704  39.702  52.904
13659W        W 5583  15.271  20.731  51.972
13660W        W 5584  14.237  36.228  53.341
13661W        W 5585  41.194  21.744  52.412
13662W        W 5586   2.285  11.771  52.432
13663W        W 5587   1.751  36.737  50.154
13664W        W 5588  23.242  10.753  50.617
13665W        W 5589   7.757   8.286  51.980
13666W        W 5590  40.230  28.204  53.814
13667W        W 5591  30.714  34.735  51.957
13668W        W 5592  43.197  28.725  53.778
13669W        W 5593  44.685  16.227  52.426
13670W        W 5594  44.701  24.257  50.592
13671W        W 5595  32.715   1.270  51.527
13672W        W 5596  32.706  25.238  51.034
13673W        W 5597  43.227  20.239  51.059
13674W        W 5598  43.720  32.235  52.435
13675W        W 5599  47.689   2.773  52.423
13676W        W 5600  26.253   4.284  51.956
13677W        W 5601  41.207  26.732  51.989
13678W        W 5602  20.733   3.770  53.782
13679W        W 5603  13.275  21.741  51.058
13680W        W 5604  32.702   1.749  51.534
13681W        W 5605   5.762   4.285  51.987
13682W        W 5606   8.243  26.727  51.520
13683W        W 5607  31.740  34.195  51.064
13684W        W 5608  31.237  15.738  53.804
13685W        W 5609   2.269  23.736  52.440
13686W        W 5610  29.234   5.248  52.865
13687W        W 5611  22.713  14.737  49.701
13688W        W 5612  37.216  26.228  53.319
13689W        W 5613  11.750  26.235  49.694
13690W        W 5614  12.255   4.270  52.869
13691W        W 5615  13.764  39.733  51.043
13692W        W 5616   1.796  18.246  52.885
13693W        W 5617  12.250  16.755  50.151
13694W        W 5618  38.225  35.695  53.814
13695W        W 5619  29.214  13.747  50.143
13696W        W 5620  24.752   5.752  49.693
13697W        W 5621  22.721  44.218  50.590
13698W        W 5622   8.752  13.257  51.989
13699W        W 5623  45.184  43.692  53.787
13700W        W 5624  47.188  47.685  52.900
13701W        W 5625   6.758  11.248  52.409
13702W        W 5626  15.228  23.247  53.321
13703W        W 5627  33.213  28.227  52.883
13704W        W 5628  21.233  35.723  53.325
13705W        W 5629  33.732  39.191  51.959
13706W        W 5630  18.757  12.732  52.899
13707W        W 5631  17.725  30.736  52.867
13708W        W 5632  20.735  37.234  52.887
13709W        W 5633  20.258  18.758  51.072
13710W        W 5634   3.775  18.733  51.512
13711W        W 5635  46.190  23.739  50.124
13712W        W 5636  40.220  39.232  50.614
13713W        W 5637  36.218  11.238  53.796
13714W        W 5638   9.767   0.793  51.955
13715W        W 5639   1.766  30.708  49.709
13716W        W 5640  46.200  13.263  53.319
13717W        W 5641   6.741  20.724  53.781
13718W        W 5642  10.264  41.218  50.147
13719W        W 5643  43.721  35.719  53.336
13720W        W 5644  13.236   5.771  51.042
13721W        W 5645  25.731  14.738  49.670
13722W        W 5646  42.687  16.245  51.498
13723W        W 5647  31.705  12.251  50.615
13724W        W 5648  15.761  44.189  51.511
13725W        W 5649  18.268   0.793  50.162
13726W        W 5650  16.748  12.763  52.878
13727W        W 5651  24.216  22.231  51.056
13728W        W 5652  21.264  10.269  53.809
13729W        W 5653  26.744  30.216  51.073
13730W        W 5654  27.721  31.720  50.157
13731W        W 5655  20.764  26.219  51.043
13732W        W 5656   8.266  24.222  52.873
13733W        W 5657  18.239  47.202  50.165
13734W        W 5658  17.769  22.748  53.358
13735W        W 5659  24.221  30.231  53.795
13736W        W 5660  43.227  30.737  53.323
13737W        W 5661  38.716  16.749  52.859
13738W        W 5662  44.178  29.733  51.064
13739W        W 5663   8.778  21.235  52.895
13740W        W 5664  47.184  39.190  51.071
13741W        W 5665  38.691  45.176  50.133
13742W        W 5666  26.755  46.684  51.503
13743W        W 5667  11.262  28.738  51.961
13744W        W 5668  44.183  18.730  51.951
13745W        W 5669  46.707  32.731  50.123
13746W        W 5670   8.283   3.771  53.797
13747W        W 5671  32.741   3.750  49.674
13748W        W 5672  32.710   7.274  52.882
13749W        W 5673   7.257  15.227  50.622
13750W        W 5674  44.217  30.203  50.138
13751W        W 5675  33.245  42.199  51.526
13752W        W 5676  12.778   3.754  50.598
13753W        W 5677  44.684  37.688  49.696
13754W        W 5678  24.256   8.766  50.598
13755W        W 5679  41.706  24.252  52.879
13756W        W 5680  19.748   7.768  51.079
13757W        W 5681  28.233  12.252  52.417
13758W        W 5682  25.743  14.252  50.621
13759W        W 5683  17.261  30.212  49.665
13760W        W 5684   6.247  39.199  52.862
13761W        W 5685  30.699  15.744  53.327
13762W        W 5686  32.228   5.261  50.153
13763W        W 5687   5.772  48.211  52.880
13764W        W 5688  32.237  14.740  50.583
13765W        W 5689  20.763  40.223  50.611
13766W        W 5690  38.712   1.766  52.865
13767W        W 5691   5.262  38.191  50.146
13768W        W 5692  26.213  41.711  52.878
13769W        W 5693  18.243  47.210  51.078
13770W        W 5694  46.676   0.275  50.609
13771W        W 5695  25.210  34.206  52.877
13772W        W 5696   8.772  17.267  50.150
13773W        W 5697  35.217  21.219  51.529
13774W        W 5698   3.747  32.707  51.532
13775W        W 5699   1.295  38.219  51.972
13776W        W 5700  11.238  18.266  52.447
13777W        W 5701  37.732  41.691  53.805
13778W        W 5702  21.745  43.717  52.881
13779W        W 5703  13.262  27.735  50.152
13780W        W 5704  16.747  39.193  51.953
13781W        W 5705  11.253  14.228  51.043
13782W        W 5706   1.284   0.284  50.149
13783W        W 5707  15.771   4.268  53.344
13784W        W 5708   8.743  33.208  50.578
13785W        W 5709   3.289  48.194  52.887
13786W        W 5710  21.739  35.217  49.686
13787W        W 5711  29.234  43.702  53.783
13788W        W 5712  28.720  27.723  49.668
13789W        W 5713   3.770  28.252  52.901
13790W        W 5714  39.225  43.217  52.408
13791W        W 5715   5.252  39.699  52.879
13792W        W 5716  20.724  46.213  52.888
13793W        W 5717  16.267  40.229  51.050
13794W        W 5718  13.278   0.272  50.159
13795W        W 5719  41.184  34.218  51.068
13796W        W 5720  24.718  11.261  51.506
13797W        W 5721  10.259  37.204  50.145
13798W        W 5722  31.715  11.234  50.151
13799W        W 5723  15.267  34.217  52.447
13800W        W 5724  18.751  24.726  51.957
13801W        W 5725  25.744   0.773  51.982
13802W        W 5726  24.234  43.181  50.623
13803W        W 5727  18.723  20.231  53.319
13804W        W 5728  38.211  25.719  51.980
13805W        W 5729  18.724  41.707  52.435
13806W        W 5730   8.782  40.693  53.781
13807W        W 5731  14.258  47.181  51.494
13808W        W 5732  36.726  48.212  50.142
13809W        W 5733  46.696  13.254  49.672
13810W        W 5734  31.246   1.250  51.049
13811W        W 5735   5.262  44.697  50.588
13812W        W 5736   5.264  32.722  51.955
13813W        W 5737  28.730  48.204  52.884
13814W        W 5738  25.241  20.721  50.596
13815W        W 5739  32.725  38.715  51.051
13816W        W 5740  21.763  20.754  50.141
13817W        W 5741   2.269   3.274  51.955
13818W        W 5742  40.709  35.719  52.425
13819W        W 5743   8.258  33.202  50.605
13820W        W 5744  20.229  42.691  53.814
13821W        W 5745  47.217  35.193  51.533
13822W        W 5746  35.212  16.747  51.048
13823W        W 5747  45.697  15.765  53.358
13824W        W 5748   2.250  11.232  52.875
13825W        W 5749   5.273  31.738  51.952
13826W        W 5750  21.732  42.191  50.137
13827W        W 5751  36.717   6.241  53.342
13828W        W 5752  18.730  43.197  53.357
13829W        W 5753  11.748  47.178  49.670
13830W        W 5754  19.230  29.705  51.068
13831W        W 5755  46.690  13.255  53.785
13832W        W 5756   9.247  25.716  52.432
13833W        W 5757  12.263   5.255  51.507
13834W        W 5758   5.760  47.184  51.497
13835W        W 5759  24.740  47.686  52.439
13836W        W 5760  34.734  37.723  51.491
13837W        W 5761  25.222  18.736  53.809
13838W        W 5762  29.230  26.214  50.149
13839W        W 5763  11.236  40.228  50.610
13840W        W 5764  31.728   5.746  49.691
13841W        W 5765  34.707  44.204  52.874
13842W        W 5766  46.693  16.270  53.335
13843W        W 5767  11.735  15.265  50.601
13844W        W 5768  37.716   9.777  52.866
13845W        W 5769  42.702  24.255  49.700
13846W        W 5770  16.751  35.704  51.491
13847W        W 5771  43.704  40.219  53.802
13848W        W 5772  48.176  25.746  51.964
13849W        W 5773   3.269   3.253  51.490
13850W        W 5774  10.283  41.717  52.446
13851W        W 5775  11.773  46.197  51.070
13852W        W 5776  14.270   2.265  52.876
13853W        W 5777  41.724  11.733  51.949
13854W        W 5778  10.262  14.276  51.961
13855W        W 5779   6.741  32.232  52.408
13856W        W 5780  24.755  42.204  51.052
13857W        W 5781   7.738  30.731  49.694
13858W        W 5782   1.786  14.754  51.523
13859W        W 5783  35.195  40.704  52.411
13860W        W 5784  36.711   0.778  52.862
13861W        W 5785   6.771  37.213  51.534
13862W        W 5786  29.207  35.192  51.963
13863W        W 5787   8.758   0.764  50.143
13864W        W 5788   9.779  46.189  49.670
13865W        W 5789  27.717  13.256  50.600
13866W        W 5790  39.685   2.787  49.686
13867W        W 5791  34.206  35.735  50.593
13868W        W 5792   4.778   8.761  50.582
13869W        W 5793   1.257  43.224  50.585
13870W        W 5794   6.766  43.679  52.442
13871W        W 5795   9.250   0.791  50.129
13872W        W 5796   2.795  35.724  49.709
13873W        W 5797  27.730  22.247  51.965
13874W        W 5798  11.747  38.716  50.603
13875W        W 5799  15.752  11.255  50.578
13876W        W 5800  40.204  24.714  49.708
13877W        W 5801   9.279  17.757  50.616
13878W        W 5802  29.218  24.257  51.057
13879W        W 5803  26.224  37.205  49.688
13880W        W 5804  30.740  28.207  52.410
13881W        W 5805  36.702  18.254  51.072
13882W        W 5806   0.255  47.208  49.668
13883W        W 5807  44.691  13.753  51.984
13884W        W 5808  30.740  20.753  53.808
13885W        W 5809   0.764  37.706  50.138
13886W        W 5810  22.744  13.261  50.622
13887W        W 5811  41.685  14.231  51.990
13888W        W 5812   2.786  24.211  50.152
13889W        W 5813  46.674   0.274  53.352
13890W        W 5814  40.715  30.742  50.597
13891W        W 5815   5.278  22.262  50.143
13892W        W 5816   9.264   9.247  50.595
13893W        W 5817  46.178   8.779  53.336
13894W        W 5818  33.210   1.289  49.684
13895W        W 5819  40.214  37.212  51.507
13896W        W 5820  16.727  21.726  49.685
13897W        W 5821  24.218  28.222  52.881
13898W        W 5822  29.711  16.257  52.866
13899W        W 5823   8.280   3.293  51.970
13900W        W 5824  41.197  47.216  50.159
13901W        W 5825  40.723  19.220  50.582
13902W        W 5826  21.751  34.223  50.130
13903W        W 5827  14.227  30.213  53.341
13904W        W 5828  28.210  41.683  53.347
13905W        W 5829  18.768  13.774  51.958
13906W        W 5830  35.730   1.268  53.812
13907W        W 5831  35.723  14.239  51.071
13908W        W 5832  18.235  22.736  53.785
13909W        W 5833  15.747  24.710  53.329
13910W        W 5834  32.199  16.228  49.687
13911W        W 5835  28.709   5.759  51.042
13912W        W 5836   4.760  17.723  50.141
13913W        W 5837  38.211   5.279  49.679
13914W        W 5838   1.751  33.239  52.904
13915W        W 5839  34.219  10.269  52.429
13916W        W 5840  35.726  23.235  52.446
13917W        W 5841  24.219  47.196  53.353
13918W        W 5842  42.704  21.755  51.078
13919W        W 5843  21.254  24.749  52.440
13920W        W 5844   9.756   3.748  49.700
13921W        W 5845  17.250  18.743  51.969
13922W        W 5846  19.247  34.225  52.862
13923W        W 5847   2.280   8.761  53.356
13924W        W 5848  22.224  39.731  50.157
13925W        W 5849  17.757  26.710  53.341
13926W        W 5850  32.221  48.204  51.965
13927W        W 5851   0.775  29.712  50.153
13928W        W 5852  28.239  46.721  53.777
13929W        W 5853  11.769   5.281  51.053
13930W        W 5854  45.223   8.772  51.512
13931W        W 5855   9.259   1.280  51.061
13932W        W 5856  35.723  42.208  53.786
13933W        W 5857   8.243  27.231  53.349
13934W        W 5858  10.278  11.745  51.975
13935W        W 5859  26.733  11.255  52.436
13936W        W 5860  17.271  37.211  50.123
13937W        W 5861  30.733  45.192  50.594
13938W        W 5862  45.714  14.728  49.703
13939W        W 5863  26.751  37.716  52.420
13940W        W 5864  35.693  19.753  50.125
13941W        W 5865   4.261  33.734  52.409
13942W        W 5866   8.275  21.239  49.673
13943W        W 5867  43.721  45.676  49.705
13944W        W 5868  13.729  32.716  53.773
13945W        W 5869  20.233  25.713  53.794
13946W        W 5870   1.260  46.697  50.619
13947W        W 5871  26.220  24.758  52.417
13948W        W 5872  14.238   1.262  49.709
13949W        W 5873   4.284  32.210  50.131
13950W        W 5874  27.232  24.727  52.877
13951W        W 5875  41.189  22.263  53.358
13952W        W 5876  45.224  31.209  53.810
13953W        W 5877  43.697  22.718  52.433
13954W        W 5878  12.760   1.258  49.680
13955W        W 5879  11.735  33.233  51.982
13956W        W 5880  30.224  30.201  51.976
13957W        W 5881  39.188  43.224  52.861
13958W        W 5882  13.739   1.297  51.971
13959W        W 5883  24.246  48.175  50.144
13960W        W 5884   0.755  29.202  49.706
13961W        W 5885  14.764  29.704  51.067
13962W        W 5886  41.703  12.276  51.960
13963W        W 5887  13.775  38.215  52.438
13964W        W 5888  27.237  17.754  49.676
13965W        W 5889   7.784  35.738  51.953
13966W        W 5890  16.242  31.733  53.789
13967W        W 5891  23.216  21.746  52.423
13968W        W 5892  17.730   3.775  51.979
13969W        W 5893  40.716  21.714  52.891
13970W        W 5894  34.734  12.753  49.707
13971W        W 5895  14.748  32.218  52.445
13972W        W 5896  48.188  10.271  49.676
13973W        W 5897  10.235  15.773  50.602
13974W        W 5898  31.248  15.755  50.583
13975W        W 5899   7.273  19.720  50.121
13976W        W 5900  43.683  35.740  49.665
13977W        W 5901  25.743  43.680  53.795
13978W        W 5902  36.734  14.726  53.322
13979W        W 5903   1.253  43.704  49.684
13980W        W 5904  22.217  25.708  50.145
13981W        W 5905  35.212  41.191  49.678
13982W        W 5906  20.718  22.256  49.692
13983W        W 5907  33.212   9.260  50.140
13984W        W 5908   4.268  20.733  50.143
13985W        W 5909  15.242  22.750  52.879
13986W        W 5910   7.269  21.718  53.782
13987W        W 5911  10.777   5.788  51.504
13988W        W 5912  31.740  31.216  52.887
13989W        W 5913  32.725  10.241  53.799
13990W        W 5914  46.703  29.218  52.405
13991W        W 5915  22.729  15.735  50.602
13992W        W 5916   2.252  15.266  50.135
13993W        W 5917  11.251  18.737  50.616
13994W        W 5918   9.767  28.229  53.326
13995W        W 5919  27.244  34.696  53.791
13996W        W 5920  18.261  12.267  51.950
13997W        W 5921  26.750   0.779  50.621
13998W        W 5922  25.227  34.694  50.128
13999W        W 5923  39.199   9.776  51.074
14000W        W 5924  29.750  44.212  51.980
14001W        W 5925   5.770  37.205  51.974
14002W        W 5926  45.218   7.757  51.073
14003W        W 5927  28.750  22.732  53.801
14004W        W 5928  41.708  28.734  51.520
14005W        W 5929  46.215   7.768  53.352
14006W        W 5930  30.232  44.199  52.446
14007W        W 5931  36.710  40.694  51.073
14008W        W 5932  46.679   1.269  51.980
14009W        W 5933  45.213   1.757  52.875
14010W        W 5934  24.235  32.710  52.408
14011W        W 5935  35.725  31.207  53.339
14012W        W 5936  17.239  43.226  52.882
14013W        W 5937  29.227  14.245  49.690
14014W        W 5938  43.722  39.716  50.158
14015W        W 5939  36.232  26.709  53.322
14016W        W 5940  10.749  26.746  53.344
14017W        W 5941  18.264  10.760  49.697
14018W        W 5942  35.205   6.242  50.163
14019W        W 5943  20.761  34.719  50.137
14020W        W 5944  11.775  41.186  51.985
14021W        W 5945  35.198   9.747  52.430
14022W        W 5946  18.741  11.767  53.795
14023W        W 5947   1.788   5.784  49.679
14024W        W 5948  21.236  45.198  51.522
14025W        W 5949  30.730  16.745  53.796
14026W        W 5950  34.707  39.723  50.159
14027W        W 5951  41.730   9.273  51.075
14028W        W 5952  11.748   8.777  51.040
14029W        W 5953  16.750  36.201  53.810
14030W        W 5954  42.714  10.737  51.965
14031W        W 5955  15.231   1.293  52.862
14032W        W 5956  39.718   2.784  51.990
14033W        W 5957  33.231  29.738  51.968
14034W        W 5958   3.793  35.720  52.442
14035W        W 5959   8.286  29.224  50.599
14036W        W 5960  40.698  39.214  51.991
14037W        W 5961  27.208   6.750  51.527
14038W        W 5962  40.209   9.761  52.897
14039W        W 5963  11.239  33.205  53.777
14040W        W 5964  35.695  34.223  52.874
14041W        W 5965  21.731   0.793  49.671
14042W        W 5966   9.237  18.229  51.074
14043W        W 5967  45.215  25.757  53.325
14044W        W 5968  36.193  15.749  52.437
14045W        W 5969  30.235  10.256  51.990
14046W        W 5970  45.698   6.764  50.614
14047W        W 5971  11.746  19.237  50.140
14048W        W 5972  23.237  43.720  51.498
14049W        W 5973  30.700   9.763  49.681
14050W        W 5974  43.194  15.772  52.407
14051W        W 5975   3.271  27.721  50.600
14052W        W 5976  27.745  26.731  52.866
14053W        W 5977  35.717  32.742  50.122
14054W        W 5978  41.690  19.226  53.814
14055W        W 5979  19.231  36.204  50.133
14056W        W 5980  36.703  41.683  53.352
14057W        W 5981   4.246  31.204  51.495
14058W        W 5982  33.201  13.261  53.359
14059W        W 5983  29.205  47.200  53.353
14060W        W 5984  21.248  20.737  52.882
14061W        W 5985  15.262  44.724  51.040
14062W        W 5986  16.758  29.213  51.504
14063W        W 5987  28.234   1.790  51.052
14064W        W 5988   8.773  36.227  52.883
14065W        W 5989  35.203   4.758  49.701
14066W        W 5990  21.238  47.698  51.529
14067W        W 5991  33.203  33.230  52.423
14068W        W 5992  21.756  21.229  50.141
14069W        W 5993  12.268  38.229  51.077
14070W        W 5994  28.716  26.235  52.904
14071W        W 5995  20.236  22.257  52.901
14072W        W 5996  24.248  39.734  49.687
14073W        W 5997   9.265  41.731  51.075
14074W        W 5998   7.269   3.263  53.779
14075W        W 5999  46.713  32.732  52.880
14076W        W 6000   5.259  17.769  50.124
14077W        W 6001  21.729  18.753  51.510
14078W        W 6002  31.230   8.247  50.156
14079W        W 6003  10.733  18.235  49.706
14080W        W 6004  27.732   6.754  50.611
14081W        W 6005  45.217  21.737  53.322
14082W        W 6006  15.744  43.210  52.904
14083W        W 6007  47.215   1.257  50.577
14084W        W 6008  21.742  45.179  51.051
14085W        W 6009   2.291  41.203  50.164
14086W        W 6010   9.767  15.744  53.815
14087W        W 6011  25.752  21.241  53.348
14088W        W 6012  41.714  40.721  53.780
14089W        W 6013  24.727  17.734  51.513
14090W        W 6014  14.257   6.284  53.809
14091W        W 6015   8.272   9.754  53.808
14092W        W 6016  28.207  31.743  51.068
14093W        W 6017  30.214  21.243  49.691
14094W        W 6018   6.287   9.249  53.773
14095W        W 6019  40.701  13.278  52.407
14096W        W 6020   1.758  25.258  51.971
14097W        W 6021  11.248  28.737  49.691
14098W        W 6022  35.705  20.252  51.072
14099W        W 6023  21.232  46.702  51.532
14100W        W 6024  41.212  42.722  50.148
14101W        W 6025  36.693  29.744  51.530
14102W        W 6026  14.743  15.768  52.433
14103W        W 6027   2.247  35.693  49.690
14104W        W 6028   9.256  15.743  53.808
14105W        W 6029  20.742  45.193  51.051
14106W        W 6030  25.715  32.237  50.578
14107W        W 6031  21.721  15.767  52.444
14108W        W 6032   3.256  20.720  52.871
14109W        W 6033  19.755  24.235  49.695
14110W        W 6034   4.791  14.239  50.609
14111W        W 6035  45.220   1.273  50.599
14112W        W 6036   2.793  32.716  50.140
14113W        W 6037  31.735  18.757  52.887
14114W        W 6038  23.760  47.176  49.680
14115W        W 6039  13.258  37.706  51.051
14116W        W 6040  32.246  18.767  49.680
14117W        W 6041  41.723   0.760  52.415
14118W        W 6042  35.706   2.793  52.406
14119W        W 6043  14.257  11.753  50.580
14120W        W 6044  31.704   0.768  50.622
14121W        W 6045  30.202   4.287  51.968
14122W        W 6046  13.244  25.209  51.507
14123W        W 6047  22.231  24.213  50.159
14124W        W 6048  17.232   4.253  53.798
14125W        W 6049   3.749   9.259  53.348
14126W        W 6050  46.208  19.753  52.418
14127W        W 6051  12.244   5.743  50.621
14128W        W 6052   2.270   4.254  52.904
14129W        W 6053  28.239  38.202  50.155
14130W        W 6054  47.201   3.755  53.355
14131W        W 6055  29.705  28.752  52.427
14132W        W 6056  42.191  24.233  51.528
14133W        W 6057  29.247  39.230  51.525
14134W        W 6058  42.190   1.763  51.529
14135W        W 6059  40.718  38.194  52.427
14136W        W 6060   9.741  37.226  51.956
14137W        W 6061  24.241  37.716  51.520
14138W        W 6062   5.272  36.715  52.882
14139W        W 6063  10.251  16.756  52.420
14140W        W 6064  45.209   6.249  52.901
14141W        W 6065  30.711  34.729  52.877
14142W        W 6066  36.719  35.219  51.047
14143W        W 6067  47.189   7.750  51.989
14144W        W 6068  22.227   7.755  50.620
14145W        W 6069  37.219  41.188  51.527
14146W        W 6070  44.211  25.711  53.809
14147W        W 6071   8.752  35.718  51.506
14148W        W 6072  32.708   1.755  51.054
14149W        W 6073  42.186  25.240  50.142
14150W        W 6074  25.223   4.255  51.977
14151W        W 6075  33.237   4.790  51.056
14152W        W 6076  25.722   3.256  50.155
14153W        W 6077  44.721  28.724  52.440
14154W        W 6078   3.276  41.213  53.799
14155W        W 6079  43.217  22.735  51.967
14156W        W 6080  15.261  27.226  51.040
14157W        W 6081  34.726   2.251  50.580
14158W        W 6082   0.788   8.273  50.128
14159W        W 6083   8.751  44.183  53.800
14160W        W 6084  10.252  19.732  51.962
14161W        W 6085  22.713   1.297  53.815
14162W        W 6086   7.776  37.211  50.166
14163W        W 6087  17.753   3.792  52.416
14164W        W 6088  11.255   9.777  50.619
14165W        W 6089  21.742  28.245  52.445
14166W        W 6090  32.704  11.734  52.404
14167W        W 6091   3.756  30.723  49.699
14168W        W 6092   6.788   3.785  52.859
14169W        W 6093   4.786   6.752  52.901
14170W        W 6094  45.679  40.709  50.578
14171W        W 6095  12.759  23.255  52.897
14172W        W 6096  31.705  21.755  52.880
14173W        W 6097  38.736   2.769  50.150
14174W        W 6098  44.206  20.229  53.807
14175W        W 6099   4.272  31.706  52.427
14176W        W 6100   7.239   1.275  51.060
14177W        W 6101  42.213  12.233  53.816
14178W        W 6102   6.241   2.785  49.665
14179W        W 6103  37.229  48.196  52.862
14180W        W 6104  13.755   6.787  51.990
14181W        W 6105   0.278  35.736  50.139
14182W        W 6106  22.251  13.740  51.950
14183W        W 6107  42.684  47.214  52.428
14184W        W 6108  11.254  10.235  53.317
14185W        W 6109  36.706  30.739  53.340
14186W        W 6110  36.230  29.705  53.329
14187W        W 6111  19.232  36.703  50.587
14188W        W 6112   0.768  25.709  53.357
14189W        W 6113  16.228  48.187  51.070
14190W        W 6114  45.213  38.720  49.685
14191W        W 6115  45.186  16.726  51.053
14192W        W 6116   3.761  25.219  51.067
14193W        W 6117   7.257  23.253  52.435
14194W        W 6118  18.255  19.726  52.876
14195W        W 6119  46.188  23.229  52.440
14196W        W 6120  48.173  26.252  53.777
14197W        W 6121   8.252  29.705  53.817
14198W        W 6122  25.714   1.264  51.076
14199W        W 6123  14.268   4.783  49.667
14200W        W 6124  40.715  48.213  51.492
14201W        W 6125  46.675  38.222  53.780
14202W        W 6126  40.725  16.261  50.586
14203W        W 6127  38.721   4.789  52.865
14204W        W 6128  40.195  15.254  53.794
14205W        W 6129   9.748  19.251  51.504
14206W        W 6130  13.758  40.207  52.887
14207W        W 6131   8.756  30.749  49.705
14208W        W 6132  30.235   3.285  51.036
14209W        W 6133  38.213  25.724  52.869
14210W        W 6134  16.750  18.245  52.424
14211W        W 6135  23.232  41.692  50.617
14212W        W 6136  42.690  19.739  51.965
14213W        W 6137  20.264   1.793  53.337
14214W        W 6138  11.772  33.720  50.613
14215W        W 6139  23.754  43.696  51.495
14216W        W 6140   6.276  14.268  49.706
14217W        W 6141  36.720  10.736  51.059
14218W        W 6142  20.756   4.780  52.893
14219W        W 6143  12.256  23.260  49.710
14220W        W 6144  35.724  30.718  49.694
14221W        W 6145  16.764   4.248  51.068
14222W        W 6146  33.739   4.267  52.405
14223W        W 6147  29.234   2.747  50.593
14224W        W 6148  40.211  46.190  51.986
14225W        W 6149  23.219  28.247  52.433
14226W        W 6150   5.260  42.215  50.147
14227W        W 6151   7.286  24.216  52.428
14228W        W 6152   1.775  34.731  52.893
14229W        W 6153  43.698  11.274  49.685
14230W        W 6154  31.212  38.725  52.429
14231W        W 6155  44.716  12.232  52.867
14232W        W 6156  45.694  15.774  50.143
14233W        W 6157  23.244  18.729  53.797
14234W        W 6158  11.748  47.200  51.512
14235W        W 6159  25.216   1.274  50.597
14236W        W 6160  15.274   9.751  53.361
14237W        W 6161  18.229  21.741  51.498
14238W        W 6162  33.196   3.253  50.595
14239W        W 6163  25.243   6.776  51.075
14240W        W 6164  21.737  26.243  52.439
14241W        W 6165  10.257  28.724  50.129
14242W        W 6166  38.689  20.723  50.159
14243W        W 6167  45.692  27.254  51.057
14244W        W 6168   7.739   2.748  50.579
14245W        W 6169   3.750  36.212  51.039
14246W        W 6170  22.734  27.708  50.621
14247W        W 6171  40.714   3.251  53.815
14248W        W 6172  38.227  40.195  51.516
14249W        W 6173  46.689   9.753  51.534
14250W        W 6174  28.708  14.768  49.680
14251W        W 6175  31.745  14.262  53.790
14252W        W 6176  25.230  32.717  51.525
14253W        W 6177   4.283  40.714  50.151
14254W        W 6178  31.746  15.249  50.618
14255W        W 6179   7.779  29.204  50.621
14256W        W 6180  19.756  15.755  52.442
14257W        W 6181   3.784  22.724  52.861
14258W        W 6182  33.245  26.752  49.667
14259W        W 6183   0.771  11.745  49.699
14260W        W 6184  28.221   7.259  50.601
14261W        W 6185   1.272  13.728  51.985
14262W        W 6186   9.275  46.688  49.669
14263W        W 6187  20.743  16.272  49.671
14264W        W 6188   4.256   0.270  49.666
14265W        W 6189  21.734  40.205  50.165
14266W        W 6190  31.739  46.708  52.409
14267W        W 6191  30.742  34.728  53.335
14268W        W 6192  34.203  37.222  51.510
14269W        W 6193   3.788  41.188  50.604
14270W        W 6194  23.221  19.760  52.411
14271W        W 6195  28.249  30.218  52.876
14272W        W 6196  36.694  33.712  51.529
14273W        W 6197   0.282  13.761  51.077
14274W        W 6198  33.718  39.717  49.682
14275W        W 6199  24.758   5.768  51.530
14276W        W 6200  32.214  46.694  51.979
14277W        W 6201  19.245  12.749  51.068
14278W        W 6202  36.705   4.260  53.354
14279W        W 6203  28.206  25.236  52.432
14280W        W 6204  36.213   5.756  50.128
14281W        W 6205  24.236  14.734  50.165
14282W        W 6206  25.750   6.248  51.040
14283W        W 6207  13.270  23.728  52.434
14284W        W 6208   6.279  37.735  53.349
14285W        W 6209  27.208   8.775  50.143
14286W        W 6210  48.217  35.229  51.987
14287W        W 6211   4.787  20.230  51.519
14288W        W 6212  28.742   0.794  52.445
14289W        W 6213  11.242  10.746  53.779
14290W        W 6214  12.272   9.267  50.123
14291W        W 6215  18.764   4.289  52.420
14292W        W 6216  26.738   3.249  50.611
14293W        W 6217  46.184   6.249  49.690
14294W        W 6218  43.215  48.190  51.073
14295W        W 6219  28.229  36.205  51.051
14296W        W 6220   9.277   6.742  53.327
14297W        W 6221  47.183   6.274  51.045
14298W        W 6222   2.276   0.761  51.989
14299W        W 6223   7.739  24.244  49.674
14300W        W 6224  34.196  20.217  51.037
14301W        W 6225  24.249   5.285  49.671
14302W        W 6226  45.715   7.772  52.428
14303W        W 6227  18.738  30.719  50.618
14304W        W 6228   2.267   9.238  51.512
14305W        W 6229   4.284   1.257  53.348
14306W        W 6230  16.736  25.726  52.871
14307W        W 6231  35.197  15.272  50.152
14308W        W 6232   8.280  35.205  51.979
14309W        W 6233  28.235  13.739  51.037
14310W        W 6234  12.733  45.686  53.782
14311W        W 6235  40.214  27.724  51.069
14312W        W 6236  26.219  45.717  51.504
14313W        W 6237   1.793  28.214  53.806
14314W        W 6238  20.730   6.246  50.122
14315W        W 6239  22.746  48.175  53.342
14316W        W 6240  21.715  17.235  52.904
14317W        W 6241  44.711  33.701  52.432
14318W        W 6242  24.238  28.711  52.860
14319W        W 6243  47.702  29.742  49.706
14320W        W 6244  38.197  13.234  50.617
14321W        W 6245   8.764   9.751  51.068
14322W        W 6246  32.733  15.240  49.684
14323W        W 6247  41.208   0.769  53.789
14324W        W 6248  47.189  46.197  53.778
14325W        W 6249  44.688  34.725  51.949
14326W        W 6250  23.748  28.239  51.043
14327W        W 6251   2.276  13.235  53.319
14328W        W 6252   3.288  45.196  53.785
14329W        W 6253  18.236  23.727  52.877
14330W        W 6254  30.739  21.261  51.052
14331W        W 6255  34.218   5.279  51.965
14332W        W 6256  47.680  36.235  49.695
14333W        W 6257   8.242  20.257  53.337
14334W        W 6258  30.710  21.237  52.447
14335W        W 6259   1.256  36.708  51.966
14336W        W 6260  22.723  10.276  52.873
14337W        W 6261  39.226  48.212  50.136
14338W        W 6262   6.782   0.268  52.424
14339W        W 6263  19.234  12.230  50.604
14340W        W 6264  44.201  30.242  52.859
14341W        W 6265  13.755  15.226  53.807
14342W        W 6266  14.239  45.722  53.329
14343W        W 6267  10.737  47.193  49.704
14344W        W 6268  17.243  18.719  53.786
14345W        W 6269  14.734  14.249  53.782
14346W        W 6270   0.253  26.736  51.035
14347W        W 6271   0.785  18.238  50.616
14348W        W 6272  36.737  16.756  51.501
14349W        W 6273  17.756  38.209  50.136
14350W        W 6274   7.264   6.271  53.779
14351W        W 6275   1.774  34.699  50.146
14352W        W 6276   6.762   9.240  53.776
14353W        W 6277  34.737  27.234  53.352
14354W        W 6278   0.757   1.263  52.881
14355W        W 6279  38.196  30.247  53.358
14356W        W 6280  36.240  20.751  53.325
14357W        W 6281   2.267  20.250  50.589
14358W        W 6282  10.776  13.765  49.683
14359W        W 6283  40.717  43.707  49.671
14360W        W 6284   7.270  43.214  51.980
14361W        W 6285  20.753  37.706  50.616
14362W        W 6286   1.255  11.756  50.141
14363W        W 6287  44.219  16.770  50.607
14364W        W 6288  10.762   4.751  53.337
14365W        W 6289   3.280  42.704  52.876
14366W        W 6290   9.258  15.733  49.701
14367W        W 6291   5.761  25.247  52.446
14368W        W 6292  29.747  11.274  51.533
14369W        W 6293  40.223   1.294  50.125
14370W        W 6294  40.199   2.784  51.063
14371W        W 6295  41.715  33.218  49.697
14372W        W 6296  34.226  29.219  50.600
14373W        W 6297   6.273  44.711  53.790
14374W        W 6298  46.198  15.258  52.448
14375W        W 6299   3.268  26.255  50.144
14376W        W 6300  27.705  38.731  52.864
14377W        W 6301  43.706  28.244  52.447
14378W        W 6302  14.271  43.716  52.862
14379W        W 6303  46.214  21.224  51.051
14380W        W 6304  26.244  35.232  53.799
14381W        W 6305   7.754   8.246  51.504
14382W        W 6306   5.779   2.264  52.424
14383W        W 6307  43.219  43.224  53.317
14384W        W 6308  27.252  37.735  53.803
14385W        W 6309   0.296  24.234  53.773
14386W        W 6310   6.780  43.724  49.700
14387W        W 6311   8.756  23.215  51.065
14388W        W 6312  11.733   6.288  50.141
14389W        W 6313  31.227  36.697  50.161
14390W        W 6314   9.283  25.749  51.511
14391W        W 6315  24.711  28.242  50.608
14392W        W 6316  15.266   8.270  52.448
14393W        W 6317   7.241  39.715  49.683
14394W        W 6318  15.230  11.736  50.610
14395W        W 6319  13.240  18.256  51.525
14396W        W 6320  44.701  36.706  53.791
14397W        W 6321   0.783  13.266  53.354
14398W        W 6322   9.253  32.721  52.869
14399W        W 6323  44.703  31.732  53.817
14400W        W 6324  24.240  38.198  51.532
14401W        W 6325   5.765  39.712  51.051
14402W        W 6326  45.198   1.292  51.050
14403W        W 6327  26.218  12.732  51.493
14404W        W 6328  40.709  29.748  51.983
14405W        W 6329   2.787  45.205  50.614
14406W        W 6330  20.234  24.219  50.132
14407W        W 6331  25.722  44.709  52.868
14408W        W 6332  10.768  39.701  53.779
14409W        W 6333   1.267  31.243  51.508
14410W        W 6334  27.752  23.741  52.447
14411W        W 6335  30.241  24.237  53.332
14412W        W 6336  29.222   8.270  49.702
14413W        W 6337  18.722  31.239  52.447
14414W        W 6338  43.704  15.751  51.496
14415W        W 6339   5.261  36.199  51.949
14416W        W 6340  39.218  45.212  51.987
14417W        W 6341  15.744  12.276  51.497
14418W        W 6342  38.722   3.253  51.983
14419W        W 6343   9.770  41.715  49.704
14420W        W 6344  23.726  38.234  51.038
14421W        W 6345  33.728   7.786  52.442
14422W        W 6346  44.710  16.727  51.970
14423W        W 6347  41.727  19.753  52.424
14424W        W 6348  43.198  23.722  50.609
14425W        W 6349  19.249  43.687  51.510
14426W        W 6350   1.273   0.770  51.960
14427W        W 6351  34.212  35.234  51.978
14428W        W 6352  44.193  45.686  52.873
14429W        W 6353  37.212  24.713  51.050
14430W        W 6354  32.235  23.745  53.356
14431W        W 6355   7.282  32.709  51.512
14432W        W 6356  11.769  23.230  53.787
14433W        W 6357  25.748  34.212  50.136
14434W        W 6358  43.697  38.735  49.678
14435W        W 6359  46.714  34.725  53.783
14436W        W 6360  22.263   2.773  52.415
14437W        W 6361   6.764  35.707  49.681
14438W        W 6362  30.739   2.265  53.317
14439W        W 6363  22.249  13.253  52.861
14440W        W 6364  43.228  24.733  50.160
14441W        W 6365  39.201  24.716  51.966
14442W        W 6366  10.778  43.195  53.319
14443W        W 6367  25.756   3.247  49.679
14444W        W 6368  45.688   7.265  50.607
14445W        W 6369  41.216  25.224  52.417
14446W        W 6370  16.756  19.764  51.526
14447W        W 6371  25.223   2.789  51.514
14448W        W 6372  27.234  21.753  51.039
14449W        W 6373  14.752   8.757  52.900
14450W        W 6374  14.762   4.766  51.074
14451W        W 6375   6.283  38.730  49.700
14452W        W 6376  22.761  18.250  53.338
14453W        W 6377  45.701  48.175  51.038
14454W        W 6378  17.237  29.749  51.034
14455W        W 6379  21.254  15.754  50.588
14456W        W 6380  22.252  29.732  53.815
14457W        W 6381  43.200  21.737  52.898
14458W        W 6382  15.269  37.189  53.781
14459W        W 6383   0.759  23.717  49.680
14460W        W 6384   4.760   1.752  50.609
14461W        W 6385  14.750  42.714  49.665
14462W        W 6386  20.758  18.736  50.595
14463W        W 6387  48.171   6.283  52.415
14464W        W 6388  25.256  12.769  51.074
14465W        W 6389  11.260  37.720  51.519
14466W        W 6390  23.236  45.697  51.525
14467W        W 6391  32.720  41.726  51.052
14468W        W 6392  20.264  17.733  50.142
14469W        W 6393   6.787  16.271  51.520
14470W        W 6394  39.195   4.757  52.442
14471W        W 6395   8.269  24.719  51.061
14472W        W 6396  44.200  36.229  50.166
14473W        W 6397   9.278  46.213  50.579
14474W        W 6398  15.234  14.764  51.504
14475W        W 6399  32.213   8.262  52.440
14476W        W 6400  15.733  47.680  50.586
14477W        W 6401  31.715  20.747  52.434
14478W        W 6402   7.765  41.206  53.806
14479W        W 6403  42.717  11.272  49.681
14480W        W 6404  14.731  33.219  50.150
14481W        W 6405  48.183  20.738  52.428
14482W        W 6406  45.225  32.716  51.505
14483W        W 6407  39.213   3.285  53.339
14484W        W 6408  11.270  36.240  50.610
14485W        W 6409  20.250  44.211  50.133
14486W        W 6410  33.212   6.782  50.594
14487W        W 6411  11.279   9.250  51.519
14488W        W 6412  19.729  44.180  52.873
14489W        W 6413  14.739  43.216  51.988
14490W        W 6414  11.279  30.713  53.786
14491W        W 6415  33.725   9.740  51.058
14492W        W 6416   7.742  39.726  50.133
14493W        W 6417  35.705   8.246  50.148
14494W        W 6418  33.712  36.734  51.987
14495W        W 6419  34.194  22.223  51.962
14496W        W 6420   1.255  35.714  53.331
14497W        W 6421   0.287  43.194  51.527
14498W        W 6422   9.779  29.229  53.772
14499W        W 6423   1.769  46.187  51.978
14500W        W 6424  24.721   2.294  51.502
14501W        W 6425  17.755  10.757  53.320
14502W        W 6426  46.178  33.208  52.880
14503W        W 6427   4.247  41.191  53.328
14504W        W 6428  23.727  47.688  52.863
14505W        W 6429   9.238   6.259  50.150
14506W        W 6430  28.717   5.760  50.610
14507W        W 6431  24.728   9.747  51.035
14508W        W 6432  43.717  26.228  52.417
14509W        W 6433   1.290  10.777  50.620
14510W        W 6434  37.707  47.218  51.038
14511W        W 6435  46.212  35.710  49.669
14512W        W 6436  41.703  20.249  50.587
14513W        W 6437  15.227   5.780  49.668
14514W        W 6438  23.225   8.274  51.070
14515W        W 6439  19.742  22.231  52.863
14516W        W 6440  20.239  45.216  51.973
14517W        W 6441   8.736  43.181  50.131
14518W        W 6442  26.218  11.263  51.051
14519W        W 6443  37.702  18.767  50.149
14520W        W 6444  16.239  32.709  50.127
14521W        W 6445  22.755   3.288  51.494
14522W        W 6446  38.199   6.286  53.333
14523W        W 6447  18.257   6.784  49.700
14524W        W 6448  15.758  40.222  49.668
14525W        W 6449  23.732  20.738  52.873
14526W        W 6450   6.260  23.738  49.681
14527W        W 6451  16.262  18.762  50.616
14528W        W 6452  23.760  43.697  50.137
14529W        W 6453   1.786   1.264  52.406
14530W        W 6454   4.257  45.692  52.898
14531W        W 6455  26.227  27.747  53.816
14532W        W 6456  33.215  33.736  52.872
14533W        W 6457   7.266   9.266  52.871
14534W        W 6458  16.223  36.731  51.979
14535W        W 6459  12.237  40.196  50.146
14536W        W 6460   1.756  47.685  51.041
14537W        W 6461   6.244  28.733  50.129
14538W        W 6462  15.268  41.712  50.150
14539W        W 6463   0.281  23.754  52.870
14540W        W 6464  24.744  39.725  51.987
14541W        W 6465  37.721   5.766  52.887
14542W        W 6466  34.731  33.727  52.901
14543W        W 6467  15.727   2.791  50.622
14544W        W 6468  22.236  18.238  50.124
14545W        W 6469  39.690  19.245  50.136
14546W        W 6470  11.268  45.209  53.814
14547W        W 6471   4.788  46.681  52.895
14548W        W 6472   5.262   3.749  50.139
14549W        W 6473  27.224   1.265  51.961
14550W        W 6474  30.213  14.263  50.594
14551W        W 6475  36.217   4.756  53.813
14552W        W 6476  34.721  29.235  51.050
14553W        W 6477  13.768  47.220  52.890
14554W        W 6478   6.746  34.198  52.425
14555W        W 6479  28.732   0.763  50.135
14556W        W 6480   6.268  41.686  51.044
14557W        W 6481   5.277   1.286  52.882
14558W        W 6482   0.760  18.228  51.055
14559W        W 6483  40.731  32.225  53.817
14560W        W 6484  42.705  29.217  51.522
14561W        W 6485  37.702  40.232  50.143
14562W        W 6486  18.738   8.781  50.589
14563W        W 6487  28.731  37.734  49.682
14564W        W 6488   9.280   6.786  51.959
14565W        W 6489  26.248   8.739  50.154
14566W        W 6490  33.199  41.185  51.532
14567W        W 6491  22.223  18.738  52.408
14568W        W 6492  28.734  31.707  51.064
14569W        W 6493  40.708  34.694  51.074
14570W        W 6494  20.721  23.215  49.709
14571W        W 6495  24.755  28.251  49.684
14572W        W 6496  11.238  12.265  52.432
14573W        W 6497  15.234  33.709  53.345
14574W        W 6498  10.234   6.263  49.688
14575W        W 6499  31.226  14.251  49.694
14576W        W 6500  38.216  20.756  51.043
14577W        W 6501  41.728  19.255  51.964
14578W        W 6502  47.684   2.254  52.440
14579W        W 6503  17.246  46.722  52.877
14580W        W 6504   6.280  15.225  50.598
14581W        W 6505  39.691  20.730  51.511
14582W        W 6506  38.207   1.748  52.891
14583W        W 6507  40.230  37.190  52.865
14584W        W 6508  42.685   8.785  51.528
14585W        W 6509  43.206  16.753  51.055
14586W        W 6510  29.712  10.770  51.535
14587W        W 6511   4.772  20.260  50.145
14588W        W 6512   1.783  23.741  50.610
14589W        W 6513  45.203  42.695  53.344
14590W        W 6514  22.726  20.765  51.037
14591W        W 6515   9.247  26.734  51.965
14592W        W 6516  31.708  37.234  50.148
14593W        W 6517  31.710  10.236  51.966
14594W        W 6518  16.771  13.267  50.588
14595W        W 6519  21.749  35.733  53.319
14596W        W 6520  48.195  35.705  53.803
14597W        W 6521   6.746   6.756  53.355
14598W        W 6522  40.206  25.731  51.967
14599W        W 6523  34.730  34.211  52.419
14600W        W 6524   4.276  38.189  50.159
14601W        W 6525  31.725  21.727  53.778
14602W        W 6526  25.721  14.730  51.510
14603W        W 6527  37.714  15.751  53.327
14604W        W 6528   9.282  24.745  53.781
14605W        W 6529   6.289  30.229  53.321
14606W        W 6530  25.257  37.197  53.317
14607W        W 6531   9.755   9.738  52.894
14608W        W 6532  27.241  34.204  51.074
14609W        W 6533  28.224  25.226  51.527
14610W        W 6534  31.215  30.243  49.675
14611W        W 6535   0.766  24.243  53.799
14612W        W 6536  26.745  18.264  49.690
14613W        W 6537   7.274  19.237  50.126
14614W        W 6538  24.741  10.770  53.357
14615W        W 6539   9.762  26.712  52.445
14616W        W 6540  43.715  10.239  52.405
14617W        W 6541  34.206  35.225  51.055
14618W        W 6542  38.723  25.225  51.955
14619W        W 6543  22.243  24.228  52.414
14620W        W 6544  18.263  35.706  52.415
14621W        W 6545  28.731  26.209  50.153
14622W        W 6546  42.184  18.246  53.794
14623W        W 6547  37.232   9.784  49.701
14624W        W 6548  16.234   0.295  53.334
14625W        W 6549  44.721  34.205  50.619
14626W        W 6550  19.753  30.747  50.602
14627W        W 6551   7.759  12.766  53.805
14628W        W 6552  14.255  30.708  53.349
14629W        W 6553  18.761  37.196  50.156
14630W        W 6554  43.221   7.754  49.664
14631W        W 6555  26.224   4.750  51.076
14632W        W 6556  39.712  26.709  50.156
14633W        W 6557   8.244  47.212  53.349
14634W        W 6558   9.240  11.258  51.521
14635W        W 6559  38.712  30.221  53.334
14636W        W 6560   7.752  48.182  52.873
14637W        W 6561   3.747  42.711  52.440
14638W        W 6562  31.215  43.693  50.158
14639W        W 6563  34.217  23.757  50.580
14640W        W 6564   9.741   0.254  52.904
14641W        W 6565  13.769  23.249  53.316
14642W        W 6566   5.789   2.291  51.523
14643W        W 6567  32.744  29.724  52.898
14644W        W 6568  18.734  36.702  50.586
14645W        W 6569  28.228  32.732  52.445
14646W        W 6570  39.195  10.258  50.619
14647W        W 6571  41.231  23.212  50.127
14648W        W 6572  47.684   5.763  53.797
14649W        W 6573  35.212  37.236  53.811
14650W        W 6574  31.236  16.746  52.878
14651W        W 6575   2.269  37.703  51.982
14652W        W 6576  45.699  46.706  52.867
14653W        W 6577  29.203  35.220  49.665
14654W        W 6578  19.266  42.223  52.898
14655W        W 6579  17.265  32.735  51.039
14656W        W 6580  18.227  37.195  50.615
14657W        W 6581  44.224  29.204  50.620
14658W        W 6582   0.263  48.199  51.987
14659W        W 6583   8.272  39.696  50.594
14660W        W 6584  47.190  21.733  49.666
14661W        W 6585  25.757  15.753  50.599
14662W        W 6586  41.186  12.263  51.498
14663W        W 6587  26.721   4.754  53.352
14664W        W 6588  37.730  28.214  50.578
14665W        W 6589  13.264  30.700  51.508
14666W        W 6590   1.292  17.239  51.055
14667W        W 6591  39.702   9.772  51.036
14668W        W 6592   0.763  19.265  51.039
14669W        W 6593  25.736  36.712  53.811
14670W        W 6594  27.711  14.735  52.416
14671W        W 6595  16.761  41.188  51.513
14672W        W 6596  30.208  46.212  50.600
14673W        W 6597   4.280  37.238  53.321
14674W        W 6598  43.225  22.244  52.444
14675W        W 6599  25.254   6.758  52.904
14676W        W 6600  46.214  44.719  50.596
14677W        W 6601  10.260   3.748  51.522
14678W        W 6602  41.682  34.202  52.891
14679W        W 6603  44.217   2.779  51.510
14680W        W 6604  34.720  39.685  49.664
14681W        W 6605  37.197  19.765  49.698
14682W        W 6606  14.229  23.718  50.578
14683W        W 6607   6.276  21.752  50.135
14684W        W 6608  25.249  23.227  51.060
14685W        W 6609  45.708  13.742  50.606
14686W        W 6610  45.213   0.787  52.448
14687W        W 6611  16.730  27.750  51.044
14688W        W 6612  15.258   6.269  51.961
14689W        W 6613  40.699  32.741  50.150
14690W        W 6614  44.212  23.733  52.901
14691W        W 6615  41.709  10.265  52.904
14692W        W 6616  43.681  40.204  51.967
14693W        W 6617  44.683  37.222  52.403
14694W        W 6618   4.256  20.249  53.354
14695W        W 6619  19.247  13.777  53.803
14696W        W 6620  41.186  31.747  53.797
14697W        W 6621  45.719  21.237  51.975
14698W        W 6622  39.232  36.221  49.694
14699W        W 6623   0.772  45.688  53.776
14700W        W 6624  17.759  17.240  53.804
14701W        W 6625  39.193  20.763  49.698
14702W        W 6626  27.246   9.257  50.130
14703W        W 6627  32.230  18.266  51.499
14704W        W 6628  42.183  10.766  52.428
14705W        W 6629  40.207  16.249  49.667
14706W        W 6630  28.225  46.186  52.419
14707W        W 6631  30.211  15.745  53.780
14708W        W 6632  13.741  23.759  50.600
14709W        W 6633  15.263  36.203  50.613
14710W        W 6634  45.690  44.710  52.899
14711W        W 6635  38.206  37.717  50.125
14712W        W 6636  10.780  47.213  50.595
14713W        W 6637  39.707  27.717  52.870
14714W        W 6638  29.707  40.702  53.333
14715W        W 6639   7.784  28.209  50.144
14716W        W 6640  29.229  40.717  50.135
14717W        W 6641  28.726  15.262  49.672
14718W        W 6642   2.253  33.233  53.804
14719W        W 6643  19.252  12.239  51.078
14720W        W 6644  43.712  26.215  51.057
14721W        W 6645  48.198  37.201  52.442
14722W        W 6646   0.784   6.252  53.785
14723W        W 6647   7.763  21.762  52.893
14724W        W 6648  25.724   7.763  51.950
14725W        W 6649  26.226  22.248  49.706
14726W        W 6650  32.726  17.241  51.524
14727W        W 6651   3.755  26.245  50.621
14728W        W 6652   9.283  26.737  53.778
14729W        W 6653  29.733  27.225  53.327
14730W        W 6654  27.749  33.741  52.866
14731W        W 6655  46.677  37.193  51.513
14732W        W 6656  19.746  20.737  53.812
14733W        W 6657   1.278  18.247  51.043
14734W        W 6658  39.725  23.215  53.786
14735W        W 6659  44.695  29.238  53.806
14736W        W 6660  14.727   7.783  52.880
14737W        W 6661  19.256  30.731  51.070
14738W        W 6662  33.214  33.202  53.798
14739W        W 6663   1.750  32.198  53.321
14740W        W 6664  26.236   6.258  52.904
14741W        W 6665  44.682   3.258  50.136
14742W        W 6666  39.716  22.727  53.354
14743W        W 6667  29.741   5.285  50.613
14744W        W 6668  16.764  18.728  51.066
14745W        W 6669  30.228   3.744  50.599
14746W        W 6670  35.736  37.706  53.322
14747W        W 6671  45.702   0.290  52.434
14748W        W 6672  40.714  42.712  51.982
14749W        W 6673   7.750  23.259  52.416
14750W        W 6674  19.737  38.690  53.781
14751W        W 6675  16.225  37.189  52.880
14752W        W 6676  19.234  22.735  50.605
14753W        W 6677  40.232  41.224  50.149
14754W        W 6678  28.725  19.756  49.670
14755W        W 6679  21.720  32.719  52.890
14756W        W 6680  47.207  43.705  50.154
14757W        W 6681  17.756  23.221  49.674
14758W        W 6682  46.688  41.686  51.064
14759W        W 6683  46.184   5.784  53.337
14760W        W 6684  30.239  26.749  53.778
14761W        W 6685  22.220  16.757  51.046
14762W        W 6686   1.255  36.725  53.346
14763W        W 6687   0.252  21.254  49.710
14764W        W 6688  11.750  26.738  51.042
14765W        W 6689  44.214  33.704  50.608
14766W        W 6690  23.754   0.281  52.860
14767W        W 6691  10.236  19.262  52.421
14768W        W 6692  43.203  14.264  52.446
14769W        W 6693  39.221  38.735  51.982
14770W        W 6694  48.187  10.736  53.798
14771W        W 6695  13.236  36.213  52.410
14772W        W 6696  31.728  42.230  51.955
14773W        W 6697  35.201  44.185  50.615
14774W        W 6698  42.203  12.268  51.063
14775W        W 6699   6.784  27.241  52.881
14776W        W 6700  25.730  35.733  51.522
14777W        W 6701   2.771  31.226  50.609
14778W        W 6702  31.741  27.750  52.435
14779W        W 6703  30.215  18.768  52.412
14780W        W 6704  10.745  20.740  51.049
14781W        W 6705   1.249  28.247  50.600
14782W        W 6706   4.745   0.274  51.960
14783W        W 6707  43.193  37.231  53.317
14784W        W 6708  11.762  42.691  49.686
14785W        W 6709  33.712  16.249  52.870
14786W        W 6710  34.234  24.233  49.667
14787W        W 6711   8.755   8.751  51.498
14788W        W 6712  32.227  29.736  52.438
14789W        W 6713  33.196  43.714  51.963
14790W        W 6714  45.715  35.722  49.707
14791W        W 6715  16.732  14.235  52.872
14792W        W 6716   1.759  13.236  50.150
14793W        W 6717  25.243  47.672  53.779
14794W        W 6718   8.286  46.219  53.316
14795W        W 6719  10.754  27.240  51.063
14796W        W 6720   7.285  31.241  51.513
14797W        W 6721  11.269   9.237  50.606
14798W        W 6722  47.209   1.797  53.772
14799W        W 6723  28.748   7.775  51.533
14800W        W 6724   6.240  46.215  50.156
14801W        W 6725  31.721  37.702  53.812
14802W        W 6726  35.222  14.260  50.123
14803W        W 6727   8.269  41.190  52.904
14804W        W 6728  26.736   6.244  50.599
14805W        W 6729  47.218   8.271  53.773
14806W        W 6730  17.736  24.254  50.136
14807W        W 6731  19.244  25.239  51.053
14808W        W 6732   5.251  14.739  50.147
14809W        W 6733   9.261  47.705  53.795
14810W        W 6734  22.732  35.240  52.428
14811W        W 6735   7.244  33.697  50.614
14812W        W 6736   9.257  40.208  49.677
14813W        W 6737  30.724  41.219  51.506
14814W        W 6738  18.742   0.760  52.445
14815W        W 6739  29.237  28.748  51.955
14816W        W 6740   5.787  39.195  53.773
14817W        W 6741   8.783  24.234  50.162
14818W        W 6742  41.724  15.259  51.962
14819W        W 6743  38.698  46.196  52.899
14820W        W 6744  34.219  25.254  50.155
14821W        W 6745  45.682   5.755  52.413
14822W        W 6746  20.751  20.719  51.514
14823W        W 6747  44.699   8.783  52.428
14824W        W 6748  21.228  26.240  52.405
14825W        W 6749   4.763  24.246  50.153
14826W        W 6750  44.679  46.209  51.503
14827W        W 6751  39.728  46.689  53.351
14828W        W 6752  41.212  23.253  51.973
14829W        W 6753  47.680  36.223  50.150
14830W        W 6754  38.689   5.741  49.687
14831W        W 6755  29.209  25.218  51.041
14832W        W 6756  15.272  23.261  52.423
14833W        W 6757   5.771  46.719  53.811
14834W        W 6758  37.736   2.287  49.676
14835W        W 6759  14.727  22.755  51.952
14836W        W 6760  39.193  14.236  51.055
14837W        W 6761  45.697   8.746  51.521
14838W        W 6762   7.771  40.697  50.612
14839W        W 6763  20.757   0.766  53.360
14840W        W 6764   1.794  25.713  53.336
14841W        W 6765  45.203  24.252  51.491
14842W        W 6766  17.753  16.744  51.498
14843W        W 6767  34.694  13.268  51.991
14844W        W 6768  19.748  38.720  51.985
14845W        W 6769  44.220  32.217  51.528
14846W        W 6770  40.194   2.767  50.600
14847W        W 6771  35.194  22.234  53.782
14848W        W 6772  41.698  46.707  51.516
14849W        W 6773  19.745  23.215  49.674
14850W        W 6774   7.259  10.737  49.705
14851W        W 6775   6.755  15.749  52.894
14852W        W 6776  36.195  15.228  51.035
14853W        W 6777   2.750   1.785  50.126
14854W        W 6778  34.211  26.244  49.705
14855W        W 6779  40.190   1.252  52.889
14856W        W 6780  45.187  31.200  50.133
14857W        W 6781  11.739  23.227  51.528
14858W        W 6782  36.204   7.778  49.682
14859W        W 6783  18.728  25.716  50.124
14860W        W 6784  47.680  14.735  50.619
14861W        W 6785   9.250   1.276  50.595
14862W        W 6786  41.695   6.245  50.147
14863W        W 6787  44.191  23.250  52.890
14864W        W 6788  20.236  17.251  51.499
14865W        W 6789  38.226   3.785  52.414
14866W        W 6790   0.793   0.763  53.324
14867W        W 6791  19.220  33.222  51.064
14868W        W 6792   3.261  20.733  50.128
14869W        W 6793   5.275  11.276  52.436
14870W        W 6794  39.217  25.248  53.785
14871W        W 6795  42.186  40.714  52.423
14872W        W 6796  15.762  14.765  50.122
14873W        W 6797  24.718   5.259  51.516
14874W        W 6798   6.752  13.765  50.580
14875W        W 6799   7.258  12.734  52.415
14876W        W 6800  11.763  47.190  50.584
14877W        W 6801  12.767  29.223  53.806
14878W        W 6802  19.718  33.205  50.136
14879W        W 6803  38.690   8.282  49.682
14880W        W 6804  12.777  46.203  51.963
14881W        W 6805   8.237   6.277  52.425
14882W        W 6806  26.248   0.268  52.863
14883W        W 6807   8.286  39.187  53.348
14884W        W 6808  33.232  39.724  51.069
14885W        W 6809  26.223   4.748  50.130
14886W        W 6810   4.272   5.271  51.522
14887W        W 6811  30.716  23.721  51.523
14888W        W 6812   3.292  22.738  52.421
14889W        W 6813   8.268  28.748  52.888
14890W        W 6814  17.238  24.723  49.681
14891W        W 6815  17.253   6.248  53.800
14892W        W 6816  14.751  46.682  51.962
14893W        W 6817  26.254   3.260  52.427
14894W        W 6818  44.181  31.244  51.534
14895W        W 6819  27.244  47.680  50.131
14896W        W 6820  29.703  20.747  51.037
14897W        W 6821  16.241   6.278  49.690
14898W        W 6822  18.241  10.749  53.347
14899W        W 6823  21.255  45.724  52.448
14900W        W 6824   6.778  27.708  53.341
14901W        W 6825  47.705  47.703  51.076
14902W        W 6826  39.187  31.224  50.128
14903W        W 6827  15.758  18.244  49.688
14904W        W 6828  28.733  47.196  51.531
14905W        W 6829  44.715  34.200  53.358
14906W        W 6830  42.691  19.249  49.706
14907W        W 6831  42.190  23.720  50.125
14908W        W 6832  35.199  16.272  50.583
14909W        W 6833  15.761  25.724  49.694
14910W        W 6834  36.237  18.726  53.795
14911W        W 6835   4.776  37.720  53.354
14912W        W 6836   6.772   8.776  51.986
14913W        W 6837  40.731  39.202  52.427
14914W        W 6838   1.275   8.263  52.405
14915W        W 6839  37.208  10.776  53.807
14916W        W 6840  47.176  47.220  50.601
14917W        W 6841  10.277  40.701  49.674
14918W        W 6842  45.199  16.251  52.407
14919W        W 6843  36.233  18.249  49.705
14920W        W 6844  20.265  28.748  51.973
14921W        W 6845  47.684  44.185  53.784
14922W        W 6846  18.254  17.242  51.521
14923W        W 6847  11.775  12.249  51.508
14924W        W 6848  24.750   7.253  53.330
14925W        W 6849  17.726  27.743  51.066
14926W        W 6850  23.728  20.266  51.979
14927W        W 6851   0.787   8.770  50.144
14928W        W 6852  36.197  26.755  52.871
14929W        W 6853  12.761   7.281  49.678
14930W        W 6854  10.262  24.236  51.510
14931W        W 6855   1.761   5.274  53.814
14932W        W 6856  43.702  31.702  52.887
14933W        W 6857   8.260  19.268  51.073
14934W        W 6858  11.736  19.231  53.344
14935W        W 6859  14.273   4.248  50.598
14936W        W 6860  26.218  32.220  51.968
14937W        W 6861  15.227  46.221  52.439
14938W        W 6862  30.229   1.286  53.808
14939W        W 6863  42.684  25.741  50.159
14940W        W 6864   7.287   1.755  53.338
14941W        W 6865   3.750  47.186  52.403
14942W        W 6866  27.220   2.785  49.689
14943W        W 6867  27.745   6.785  50.141
14944W        W 6868   8.763  29.211  52.418
14945W        W 6869  48.184  16.764  52.425
14946W        W 6870  10.765  10.744  52.861
14947W        W 6871   5.764  16.253  50.617
14948W        W 6872  44.688  30.731  52.871
14949W        W 6873  46.182  44.183  51.526
14950W        W 6874  45.185   2.248  49.665
14951W        W 6875  34.725  20.266  51.959
14952W        W 6876  39.698  35.210  50.591
14953W        W 6877  19.219  39.708  51.062
14954W        W 6878  23.241  10.245  52.444
14955W        W 6879  42.222  43.693  51.534
14956W        W 6880  38.199  45.187  51.983
14957W        W 6881  27.745  19.719  49.695
14958W        W 6882  42.713  27.235  53.786
14959W        W 6883  31.213   5.759  51.052
14960W        W 6884  44.677  35.740  51.970
14961W        W 6885  31.215  43.187  53.342
14962W        W 6886  10.259  31.732  51.978
14963W        W 6887  32.200  31.200  51.988
14964W        W 6888   2.258   9.772  50.162
14965W        W 6889  25.249  23.253  49.708
14966W        W 6890  17.755  37.709  51.063
14967W        W 6891  27.736  37.219  53.816
14968W        W 6892  27.235  46.687  51.512
14969W        W 6893  24.227  18.750  51.973
14970W        W 6894  19.240  35.240  53.809
14971W        W 6895   6.262   6.763  53.317
14972W        W 6896  46.208  45.675  51.956
14973W        W 6897  22.751  38.732  51.066
14974W        W 6898   3.786   3.756  51.530
14975W        W 6899  34.731  14.260  50.158
14976W        W 6900  36.711  27.752  52.899
14977W        W 6901  33.243  23.233  49.666
14978W        W 6902  23.734   0.295  51.962
14979W        W 6903  14.270  10.235  51.965
14980W        W 6904  22.757   4.758  52.426
14981W        W 6905  24.224  23.733  51.060
14982W        W 6906  33.708   8.239  50.581
14983W        W 6907  45.200  30.241  53.809
14984W        W 6908  19.741  14.233  53.345
14985W        W 6909  41.221   1.268  52.902
14986W        W 6910  33.739   8.768  49.683
14987W        W 6911  23.257  20.227  51.956
14988W        W 6912  18.722  46.721  51.520
14989W        W 6913  20.725  35.201  51.061
14990W        W 6914  24.231  41.683  51.040
14991W        W 6915   6.241   5.752  51.078
14992W        W 6916  21.251   6.773  52.902
14993W        W 6917  24.736  39.233  52.881
14994W        W 6918  19.237  11.281  53.352
14995W        W 6919  22.242   9.241  53.807
14996W        W 6920  20.763  31.241  52.886
14997W        W 6921   4.787  48.193  53.320
14998W        W 6922   1.786  31.720  51.052
14999W        W 6923  23.249  45.703  52.428
15000W        W 6924  14.256  34.203  50.149
15001W        W 6925  20.746  26.250  53.778
15002W        W 6926  22.729  20.243  51.530
15003W        W 6927   1.277  36.734  51.073
15004W        W 6928  18.260  40.230  50.601
15005W        W 6929  23.729  38.224  51.985
15006W        W 6930   5.255  41.208  53.317
15007W        W 6931  34.218  30.743  51.989
15008W        W 6932  31.715  36.725  52.865
15009W        W 6933   2.790  47.714  51.054
15010W        W 6934   8.258  14.729  51.974
15011W        W 6935   4.288  14.271  51.525
15012W        W 6936  34.706  14.233  53.803
15013W        W 6937  40.706  26.240  50.164
15014W        W 6938  10.766   2.746  52.411
15015W        W 6939  45.203   9.236  50.154
15016W        W 6940  45.194  15.232  51.525
15017W        W 6941  36.708  40.195  51.068
15018W        W 6942  26.248   0.265  50.591
15019W        W 6943  35.219   7.764  51.508
15020W        W 6944  46.222   3.763  51.045
15021W        W 6945  28.242  41.216  52.887
15022W        W 6946   9.248  27.744  51.053
15023W        W 6947  47.700  23.254  52.416
15024W        W 6948  20.244   2.789  51.960
15025W        W 6949  42.211  45.199  53.803
15026W        W 6950   3.782   6.250  53.347
15027W        W 6951  42.216  16.766  50.619
15028W        W 6952  37.237  30.216  51.986
15029W        W 6953  22.234  29.729  51.957
15030W        W 6954  18.259   8.758  52.902
15031W        W 6955  36.721  28.745  51.055
15032W        W 6956  39.231  41.210  51.951
15033W        W 6957   8.738  42.214  52.883
15034W        W 6958  29.240   4.244  50.145
15035W        W 6959  40.194  46.176  52.886
15036W        W 6960  38.213  11.738  50.612
15037W        W 6961   6.788  37.220  52.444
15038W        W 6962   6.260   3.245  51.525
15039W        W 6963  27.218  23.252  53.788
15040W        W 6964  21.750  33.240  50.164
15041W        W 6965  19.747  19.724  52.871
15042W        W 6966  14.274  38.217  51.074
15043W        W 6967   8.239   3.762  50.163
15044W        W 6968  27.750   7.785  49.679
15045W        W 6969  36.715  19.236  50.122
15046W        W 6970  46.684   7.274  50.152
15047W        W 6971  14.769  24.255  50.582
15048W        W 6972   8.761  10.741  52.440
15049W        W 6973   4.244  44.703  50.143
15050W        W 6974  28.721  43.705  51.493
15051W        W 6975  10.754  29.729  49.694
15052W        W 6976  42.694  34.720  51.061
15053W        W 6977   4.767  41.706  50.158
15054W        W 6978  42.699  16.769  51.042
15055W        W 6979  19.246  46.190  50.597
15056W        W 6980  10.761   3.247  49.695
15057W        W 6981  13.731   0.752  50.136
15058W        W 6982  18.761  38.707  53.331
15059W        W 6983   7.765   4.254  50.599
15060W        W 6984  43.692  15.768  51.060
15061W        W 6985  42.715   1.780  51.965
15062W        W 6986  14.231   8.278  50.129
15063W        W 6987  38.210  36.229  51.506
15064W        W 6988  45.176  47.217  53.795
15065W        W 6989  22.229  20.258  50.599
15066W        W 6990  39.229  31.219  50.617
15067W        W 6991  28.739   7.281  52.899
15068W        W 6992   5.758  39.205  49.695
15069W        W 6993  41.710   0.786  51.073
15070W        W 6994  22.237  14.230  50.591
15071W        W 6995   4.775  46.180  51.500
15072W        W 6996  48.215  31.708  52.863
15073W        W 6997   0.795   4.751  53.789
15074W        W 6998  47.172   2.761  50.161
15075W        W 6999  10.773   1.757  51.064
15076W        W 7000  31.740  17.251  51.064
15077W        W 7001  30.236  25.211  52.867
15078W        W 7002  37.733  17.757  51.992
15079W        W 7003  29.716  45.217  51.955
15080W        W 7004  14.257  46.682  49.674
15081W        W 7005  24.734  14.735  53.809
15082W        W 7006  20.747  12.741  52.868
15083W        W 7007   6.254  42.213  53.355
15084W        W 7008  25.738  39.724  53.804
15085W        W 7009  25.738  17.271  52.902
15086W        W 7010  48.216  29.734  52.430
15087W        W 7011  29.231  22.744  50.123
15088W        W 7012  48.173  18.761  52.893
15089W        W 7013   5.769   6.750  52.416
15090W        W 7014  32.700   1.250  50.141
15091W        W 7015  30.734  13.242  51.494
15092W        W 7016  44.713  12.736  51.988
15093W        W 7017  25.233  46.706  49.694
15094W        W 7018  16.238  21.218  52.441
15095W        W 7019  47.196  36.236  51.075
15096W        W 7020   0.755   7.245  50.140
15097W        W 7021  29.217  26.732  53.341
15098W        W 7022  44.227  32.213  53.330
15099W        W 7023  18.757   0.263  51.499
15100W        W 7024  19.220  38.194  52.891
15101W        W 7025  47.215  40.225  51.071
15102W        W 7026   3.772   1.777  51.501
15103W        W 7027  14.266   8.250  52.404
15104W        W 7028   8.769   5.289  53.787
15105W        W 7029  39.687  39.198  51.071
15106W        W 7030   7.776  36.695  50.121
15107W        W 7031  22.713  30.239  53.817
15108W        W 7032  36.221  28.703  51.521
15109W        W 7033  15.732  43.716  52.866
15110W        W 7034   9.262  36.197  51.043
15111W        W 7035  38.714  25.238  51.528
15112W        W 7036  30.708   8.780  51.058
15113W        W 7037  32.232  42.705  51.075
15114W        W 7038  47.205  23.220  50.121
15115W        W 7039  23.754  45.703  52.901
15116W        W 7040   6.267  46.210  51.074
15117W        W 7041  11.275   4.747  51.948
15118W        W 7042   4.245  17.770  51.519
15119W        W 7043   7.749   5.780  49.692
15120W        W 7044  16.249  10.764  52.408
15121W        W 7045  14.239  38.221  50.591
15122W        W 7046  27.721  29.712  50.140
15123W        W 7047  31.727  22.238  51.036
15124W        W 7048  28.723  39.213  50.137
15125W        W 7049   4.263  28.704  52.873
15126W        W 7050  41.689  21.217  53.348
15127W        W 7051  29.209  48.218  51.048
15128W        W 7052  11.750  11.736  51.514
15129W        W 7053   0.277  32.740  50.128
15130W        W 7054  11.767  11.234  53.800
15131W        W 7055  35.242   8.765  52.876
15132W        W 7056   9.241  41.704  49.706
15133W        W 7057  45.709  17.727  51.073
15134W        W 7058  14.246   6.764  51.990
15135W        W 7059  38.716  23.732  50.153
15136W        W 7060  32.246  40.718  52.869
15137W        W 7061  46.215  32.725  50.123
15138W        W 7062  29.717  23.238  51.969
15139W        W 7063   5.771  16.731  51.981
15140W        W 7064  40.213   8.782  52.872
15141W        W 7065  43.705   6.247  52.405
15142W        W 7066  36.703  42.712  52.437
15143W        W 7067   0.258  20.731  49.702
15144W        W 7068  43.688  11.236  50.138
15145W        W 7069   7.749  48.181  51.989
15146W        W 7070  16.763  12.278  51.077
15147W        W 7071  27.706  21.259  49.664
15148W        W 7072   1.259  45.709  50.156
15149W        W 7073  36.233  18.231  50.622
15150W        W 7074  19.764  31.747  53.326
15151W        W 7075  35.215  23.221  53.326
15152W        W 7076  47.711  17.758  49.690
15153W        W 7077   9.239   0.270  51.951
15154W        W 7078  32.219   8.264  53.817
15155W        W 7079  33.742  22.241  53.813
15156W        W 7080  12.737  43.698  51.986
15157W        W 7081  40.220  33.234  49.686
15158W        W 7082  40.210  15.770  51.521
15159W        W 7083  20.262   5.747  52.426
15160W        W 7084  47.186  16.727  49.673
15161W        W 7085   2.770   5.272  51.069
15162W        W 7086   4.749   9.780  53.781
15163W        W 7087   5.766  18.244  52.903
15164W        W 7088  32.736  38.197  51.493
15165W        W 7089  44.224  33.208  52.420
15166W        W 7090   0.775  37.199  52.893
15167W        W 7091  30.703  44.227  52.880
15168W        W 7092  35.704  12.753  50.608
15169W        W 7093  20.754   2.296  53.796
15170W        W 7094  46.701  23.235  51.056
15171W        W 7095   4.272  32.745  50.125
15172W        W 7096   2.258  31.237  53.805
15173W        W 7097  46.192  16.770  51.063
15174W        W 7098  17.747   8.269  51.963
15175W        W 7099  21.740  35.740  53.776
15176W        W 7100  35.237   8.770  53.776
15177W        W 7101  40.233   0.275  51.991
15178W        W 7102  39.192  14.248  49.667
15179W        W 7103   8.239  36.698  53.786
15180W        W 7104  47.177  37.708  53.795
15181W        W 7105  43.219  22.717  53.812
15182W        W 7106  33.233   2.748  49.692
15183W        W 7107   5.744  24.232  52.438
15184W        W 7108  46.205  40.226  50.584
15185W        W 7109   3.785  36.205  51.982
15186W        W 7110   8.286  10.770  52.891
15187W        W 7111  25.228  47.217  51.966
15188W        W 7112  24.235  32.220  51.955
15189W        W 7113  45.208  13.729  50.141
15190W        W 7114  19.254  41.709  49.705
15191W        W 7115  20.726   6.248  51.962
15192W        W 7116  20.235   3.744  51.508
15193W        W 7117  31.727   1.278  51.970
15194W        W 7118  19.262   0.268  49.671
15195W        W 7119  11.273  40.230  51.076
15196W        W 7120   6.273   5.276  53.780
15197W        W 7121  36.695  46.708  50.616
15198W        W 7122  40.721  30.206  52.890
15199W        W 7123  47.178  29.218  52.406
15200W        W 7124  43.207  32.700  49.704
15201W        W 7125  43.197  22.761  51.520
15202W        W 7126  16.737  28.234  52.436
15203W        W 7127   0.286  30.740  53.349
15204W        W 7128  33.695  35.696  53.807
15205W        W 7129  13.271  18.748  53.360
15206W        W 7130  32.744  20.717  51.039
15207W        W 7131  41.705  47.701  51.076
15208W        W 7132  18.730  27.740  50.610
15209W        W 7133  21.226  45.183  53.318
15210W        W 7134  11.254  44.717  50.578
15211W        W 7135  16.263  16.262  52.865
15212W        W 7136   3.766  12.242  52.886
15213W        W 7137  14.749  35.195  52.427
15214W        W 7138  45.677  45.714  49.678
15215W        W 7139  19.232  25.749  50.619
15216W        W 7140  13.265  28.737  51.981
15217W        W 7141   2.750  18.255  51.491
15218W        W 7142  28.721  45.675  51.062
15219W        W 7143   5.245   4.278  51.497
15220W        W 7144  35.219  17.742  49.689
15221W        W 7145   9.267  41.731  50.156
15222W        W 7146  46.687  27.738  50.126
15223W        W 7147  24.734   5.785  50.136
15224W        W 7148  13.257  39.228  53.357
15225W        W 7149  25.729  35.235  49.675
15226W        W 7150  27.721  38.206  50.139
15227W        W 7151   3.747  33.699  52.430
15228W        W 7152  22.244  30.736  53.324
15229W        W 7153  29.740  23.212  53.802
15230W        W 7154  30.224  23.752  50.152
15231W        W 7155  20.745  47.185  51.076
15232W        W 7156  38.212  21.724  52.897
15233W        W 7157  21.728  46.223  53.788
15234W        W 7158  37.694  45.222  51.499
15235W        W 7159  25.245  42.226  49.671
15236W        W 7160  20.743  20.747  51.953
15237W        W 7161  33.716  25.240  50.590
15238W        W 7162   8.263  35.735  52.444
15239W        W 7163  12.231  22.745  53.317
15240W        W 7164  23.226  44.213  49.684
15241W        W 7165  41.689   4.271  53.789
15242W        W 7166  43.205  48.181  53.346
15243W        W 7167  36.209  44.696  51.982
15244W        W 7168  46.215  31.209  53.347
15245W        W 7169  11.735  16.739  52.891
15246W        W 7170   1.250  25.711  52.873
15247W        W 7171  43.189  38.711  52.881
15248W        W 7172  13.263  39.720  49.665
15249W        W 7173  26.719  30.205  50.580
15250W        W 7174   4.763  46.722  52.443
15251W        W 7175  29.249   8.254  53.350
15252W        W 7176  20.765  12.232  50.598
15253W        W 7177  39.195  42.693  49.668
15254W        W 7178  22.230  20.739  52.417
15255W        W 7179  19.226  15.738  53.331
15256W        W 7180  13.243  38.716  49.681
15257W        W 7181  23.213  44.722  49.703
15258W        W 7182  16.237  20.256  53.815
15259W        W 7183  44.707   9.268  49.666
15260W        W 7184  15.755  27.727  51.063
15261W        W 7185  23.724  41.187  51.490
15262W        W 7186  36.234  38.689  49.669
15263W        W 7187  25.229  33.210  50.611
15264W        W 7188  18.244   2.295  52.408
15265W        W 7189  35.233  17.741  50.612
15266W        W 7190  44.706  32.227  49.672
15267W        W 7191  42.185  33.211  51.077
15268W        W 7192   7.784  43.691  52.881
15269W        W 7193  27.224  40.706  52.883
15270W        W 7194   7.743  21.224  49.678
15271W        W 7195  38.215  24.237  53.348
15272W        W 7196  14.741  40.192  51.975
15273W        W 7197  20.752  32.726  51.982
15274W        W 7198  15.227  14.240  50.611
15275W        W 7199  31.721   1.270  50.139
15276W        W 7200   8.775  34.728  53.343
15277W        W 7201   0.789  24.717  50.123
15278W        W 7202  45.703  43.679  51.079
15279W        W 7203  11.769   4.282  51.526
15280W        W 7204  43.224  20.719  50.134
15281W        W 7205  18.725  12.754  51.961
15282W        W 7206  20.747  22.734  52.874
15283W        W 7207  13.246  25.244  52.877
15284W        W 7208  40.688  20.243  53.774
15285W        W 7209  14.762   5.775  53.793
15286W        W 7210  13.250  19.761  51.987
15287W        W 7211  10.258  43.723  51.513
15288W        W 7212   1.292  44.211  52.882
15289W        W 7213  25.237  42.193  50.600
15290W        W 7214  15.766   8.772  51.974
15291W        W 7215  27.241   8.782  49.693
15292W        W 7216  15.747  42.205  53.338
15293W        W 7217  45.708  17.258  51.055
15294W        W 7218  46.207  41.684  49.682
15295W        W 7219   2.268  30.221  50.596
15296W        W 7220  11.775   5.753  49.699
15297W        W 7221   8.248  13.744  51.991
15298W        W 7222  23.756   8.758  52.415
15299W        W 7223   2.247  14.273  52.862
15300W        W 7224  43.720  22.733  50.585
15301W        W 7225   8.783   6.788  51.528
15302W        W 7226  20.257  39.195  51.060
15303W        W 7227   7.778   8.273  50.161
15304W        W 7228  20.225   3.294  51.967
15305W        W 7229  37.699  28.726  51.534
15306W        W 7230  14.741  24.712  51.501
15307W        W 7231  29.209  20.240  53.353
15308W        W 7232   5.756  11.775  51.976
15309W        W 7233   3.750  40.684  52.423
15310W        W 7234  42.704  29.204  53.788
15311W        W 7235   7.771  39.724  52.404
15312W        W 7236  21.254   0.793  52.446
15313W        W 7237  17.755  17.733  50.590
15314W        W 7238  18.226  22.214  51.525
15315W        W 7239  27.218  27.237  51.041
15316W        W 7240  38.732  28.737  50.127
15317W        W 7241  40.197  39.731  53.335
15318W        W 7242  33.743  33.722  50.138
15319W        W 7243  32.217   9.768  49.689
15320W        W 7244  33.218  29.742  53.356
15321W        W 7245  28.706  10.241  50.146
15322W        W 7246  47.696   1.792  51.068
15323W        W 7247  33.199  15.749  50.158
15324W        W 7248  30.713  37.195  53.328
15325W        W 7249   7.748  20.750  50.136
15326W        W 7250  22.717  14.247  50.580
15327W        W 7251  16.734  29.240  50.586
15328W        W 7252  20.745  26.712  51.512
15329W        W 7253  41.193  43.219  52.880
15330W        W 7254   3.768   5.780  50.121
15331W        W 7255  44.205  27.743  51.965
15332W        W 7256   0.299   3.286  50.619
15333W        W 7257  12.269   0.251  51.035
15334W        W 7258  33.726  29.703  49.687
15335W        W 7259   3.276  27.747  49.701
15336W        W 7260  23.725  22.262  50.130
15337W        W 7261  47.681  40.228  51.955
15338W        W 7262  34.741   7.287  50.146
15339W        W 7263  13.230  30.730  49.686
15340W        W 7264  46.686  23.719  52.885
15341W        W 7265   2.251  21.727  52.418
15342W        W 7266  37.217  16.772  51.987
15343W        W 7267   4.284  22.759  51.963
15344W        W 7268  26.707   9.781  50.613
15345W        W 7269  39.215  30.202  53.326
15346W        W 7270  35.238   5.788  49.677
15347W        W 7271   3.773  22.249  51.982
15348W        W 7272  13.754  12.761  51.982
15349W        W 7273  11.247  39.211  51.512
15350W        W 7274   9.245   5.743  51.079
15351W        W 7275   2.789  16.235  53.331
15352W        W 7276  21.736  12.257  52.869
15353W        W 7277  27.227  40.198  53.327
15354W        W 7278  48.199  37.733  52.863
15355W        W 7279  41.696  10.763  51.067
15356W        W 7280  45.197  27.722  49.678
15357W        W 7281  18.745  47.186  51.958
15358W        W 7282  43.193   9.746  52.898
15359W        W 7283  41.721  25.253  50.160
15360W        W 7284  20.223  44.214  49.666
15361W        W 7285   1.272  44.214  52.444
15362W        W 7286   7.737  31.705  52.407
15363W        W 7287  37.211   6.270  51.990
15364W        W 7288  35.195  19.238  51.042
15365W        W 7289  21.729  36.190  53.781
15366W        W 7290   6.770  17.249  51.952
15367W        W 7291  16.261  37.231  50.159
15368W        W 7292  37.238  20.219  50.601
15369W        W 7293  17.769   9.254  51.977
15370W        W 7294   4.289  30.706  51.053
15371W        W 7295  14.273   1.776  49.668
15372W        W 7296  46.690  14.747  52.887
15373W        W 7297  24.728   1.779  53.319
15374W        W 7298  11.771  36.691  53.772
15375W        W 7299  34.213  43.207  53.784
15376W        W 7300  22.238  11.731  50.595
15377W        W 7301  34.241  31.201  51.532
15378W        W 7302   5.749  44.719  52.445
15379W        W 7303  36.734  26.211  49.707
15380W        W 7304  19.728  42.705  53.778
15381W        W 7305   7.273  26.254  50.611
15382W        W 7306  24.242  12.239  52.888
15383W        W 7307   6.272  43.724  51.954
15384W        W 7308  28.724  36.733  50.144
15385W        W 7309  43.679  30.731  51.960
15386W        W 7310  15.251  10.268  51.054
15387W        W 7311   0.288  26.725  53.361
15388W        W 7312   7.279  40.221  51.529
15389W        W 7313  18.252   4.246  51.075
15390W        W 7314  42.697   4.761  51.973
15391W        W 7315  29.716  18.221  52.882
15392W        W 7316  10.741  36.207  50.588
15393W        W 7317  37.228  13.755  53.328
15394W        W 7318  19.227   4.751  53.342
15395W        W 7319  42.728  23.748  53.785
15396W        W 7320  17.768  12.749  53.354
15397W        W 7321  13.272  37.713  53.360
15398W        W 7322  32.206  18.242  53.814
15399W        W 7323  18.251  43.223  51.072
15400W        W 7324  47.216  20.751  51.973
15401W        W 7325  15.736  35.736  51.981
15402W        W 7326  25.253  25.743  52.879
15403W        W 7327  47.222  24.255  50.164
15404W        W 7328   4.777  40.697  53.350
15405W        W 7329  19.759  11.779  50.139
15406W        W 7330   7.266  36.221  53.337
15407W        W 7331   9.235  47.185  49.700
15408W        W 7332  29.734  29.223  51.953
15409W        W 7333  10.235  20.241  51.068
15410W        W 7334   5.270  44.191  52.860
15411W        W 7335  10.262  30.231  51.059
15412W        W 7336   7.763   7.283  50.579
15413W        W 7337  11.769   8.784  51.989
15414W        W 7338  29.244  40.727  52.881
15415W        W 7339  18.758   3.780  50.132
15416W        W 7340  38.721  36.199  51.502
15417W        W 7341  30.731  15.240  53.780
15418W        W 7342  29.230  41.215  53.319
15419W        W 7343  23.712   2.258  52.878
15420W        W 7344  20.224  42.187  51.534
15421W        W 7345   7.255  38.712  52.422
15422W        W 7346  40.722  16.733  50.166
15423W        W 7347  34.237  10.754  51.968
15424W        W 7348   4.785   1.270  51.531
15425W        W 7349   8.767  23.225  52.890
15426W        W 7350   4.280  41.685  53.350
15427W        W 7351  46.210  39.215  50.600
15428W        W 7352   3.752  39.203  53.785
15429W        W 7353   2.769  29.240  53.811
15430W        W 7354  47.192  35.206  52.881
15431W        W 7355  36.228  48.214  52.405
15432W        W 7356   9.748  27.206  52.428
15433W        W 7357  39.726  38.205  50.140
15434W        W 7358  26.256   3.779  50.604
15435W        W 7359  26.209  28.221  52.435
15436W        W 7360  36.715  39.232  51.533
15437W        W 7361  12.246  28.249  52.440
15438W        W 7362  43.715  36.232  49.706
15439W        W 7363  43.681  29.220  50.165
15440W        W 7364  24.738  47.187  53.316
15441W        W 7365  14.247   4.768  51.531
15442W        W 7366   8.258   8.745  51.037
15443W        W 7367  22.719  11.232  51.503
15444W        W 7368  21.760   5.253  50.595
15445W        W 7369  39.712  19.229  51.526
15446W        W 7370  26.230  27.242  50.615
15447W        W 7371  31.233  45.202  51.955
15448W        W 7372  21.734  13.240  51.968
15449W        W 7373  16.758  16.725  53.792
15450W        W 7374   8.758  30.727  50.581
15451W        W 7375  26.252  44.223  52.863
15452W        W 7376  32.217  24.737  50.579
15453W        W 7377  36.731   0.768  51.044
15454W        W 7378   7.268  36.240  53.804
15455W        W 7379  14.265  42.708  50.585
15456W        W 7380  13.245  39.233  51.974
15457W        W 7381  28.706  25.733  52.414
15458W        W 7382  26.227  35.216  49.685
15459W        W 7383  48.217   9.262  50.591
15460W        W 7384  42.198  46.691  53.350
15461W        W 7385  34.725  29.221  49.681
15462W        W 7386  39.690  35.220  53.333
15463W        W 7387  12.751  25.718  51.984
15464W        W 7388  32.235  35.224  50.165
15465W        W 7389  38.734   2.747  53.812
15466W        W 7390  43.718  35.235  51.956
15467W        W 7391   5.762   1.759  50.613
15468W        W 7392  22.259   1.774  53.785
15469W        W 7393  26.219  29.246  52.902
15470W        W 7394  40.721  22.730  50.142
15471W        W 7395   1.254   1.752  53.800
15472W        W 7396  13.762   4.780  53.327
15473W        W 7397  39.197  19.232  53.775
15474W        W 7398   2.257  30.725  50.582
15475W        W 7399  34.197  38.719  52.444
15476W        W 7400  13.247  30.208  51.075
15477W        W 7401   3.786  38.717  51.517
15478W        W 7402  26.708  36.222  50.594
15479W        W 7403  14.735  23.760  52.438
15480W        W 7404   1.265   8.271  53.316
15481W        W 7405  28.710  35.708  51.051
15482W        W 7406  45.693  28.742  49.680
15483W        W 7407  42.683  18.753  53.796
15484W        W 7408  35.225  33.722  53.323
15485W        W 7409  14.270   2.783  53.774
15486W        W 7410   3.754   0.298  51.526
15487W        W 7411  27.212  21.250  49.695
15488W        W 7412  37.196  26.707  51.513
15489W        W 7413  35.215  16.227  53.331
15490W        W 7414  23.224  33.227  50.154
15491W        W 7415  25.234  30.711  51.985
15492W        W 7416   2.258  36.724  51.057
15493W        W 7417  10.749   0.289  53.319
15494W        W 7418  37.692   8.755  52.448
15495W        W 7419   1.787  23.749  53.327
15496W        W 7420  34.211  30.709  50.593
15497W        W 7421  25.219  22.260  53.783
15498W        W 7422  14.771  31.217  51.039
15499W        W 7423   6.272  31.745  52.864
15500W        W 7424  46.685  14.759  50.146
15501W        W 7425  10.282   1.278  52.405
15502W        W 7426  46.722  14.772  53.803
15503W        W 7427  28.744  15.772  53.816
15504W        W 7428  36.191   4.758  52.404
15505W        W 7429   9.735   3.289  51.961
15506W        W 7430  16.736  18.263  53.339
15507W        W 7431  36.714  16.745  52.409
15508W        W 7432   2.793  19.259  49.680
15509W        W 7433   9.256  18.758  52.434
15510W        W 7434  14.731   0.775  53.332
15511W        W 7435  29.241   1.788  50.144
15512W        W 7436  44.195  28.206  51.039
15513W        W 7437  16.745  39.725  51.966
15514W        W 7438  29.709  10.781  52.407
15515W        W 7439  45.721  32.742  49.703
15516W        W 7440  32.246  43.716  51.494
15517W        W 7441  21.263  39.202  53.326
15518W        W 7442   3.768  23.717  52.410
15519W        W 7443  13.762  36.706  52.433
15520W        W 7444  17.240  23.232  53.803
15521W        W 7445  13.256  40.215  51.524
15522W        W 7446   8.776  44.690  52.443
15523W        W 7447  19.759   6.266  51.959
15524W        W 7448  26.731   6.258  52.862
15525W        W 7449   2.782  35.709  51.035
15526W        W 7450  38.728  29.250  49.701
15527W        W 7451  31.708   8.278  49.679
15528W        W 7452  39.206   6.264  51.071
15529W        W 7453  19.740  23.750  53.788
15530W        W 7454  21.754  11.234  52.878
15531W        W 7455   1.775  23.220  50.594
15532W        W 7456  28.245  31.723  49.697
15533W        W 7457   7.287  29.718  53.360
15534W        W 7458  24.211  11.757  53.794
15535W        W 7459  30.236  27.735  50.156
15536W        W 7460  41.218  44.705  51.976
15537W        W 7461   3.289  46.704  52.440
15538W        W 7462  26.233   9.284  51.500
15539W        W 7463  29.242  20.230  51.978
15540W        W 7464  47.692  19.260  53.336
15541W        W 7465  34.699  31.739  51.064
15542W        W 7466  30.721  45.689  51.524
15543W        W 7467  26.233  47.186  51.956
15544W        W 7468  48.206  21.758  50.133
15545W        W 7469  24.715  22.225  50.162
15546W        W 7470  24.229  25.754  50.123
15547W        W 7471  17.736  24.717  50.160
15548W        W 7472  39.226  41.730  51.511
15549W        W 7473  33.222  10.739  52.423
15550W        W 7474  10.732   8.257  52.892
15551W        W 7475  20.746  20.241  52.887
15552W        W 7476  39.187  28.246  49.688
15553W        W 7477  46.694  41.220  53.354
15554W        W 7478  29.205   9.739  51.975
15555W        W 7479  15.768   0.760  50.134
15556W        W 7480  30.704  10.251  50.609
15557W        W 7481   1.289  21.219  51.045
15558W        W 7482  14.249  19.244  52.870
15559W        W 7483  43.211  36.198  50.594
15560W        W 7484  40.198   0.778  49.666
15561W        W 7485  26.753  43.700  49.668
15562W        W 7486  22.733  34.697  52.876
15563W        W 7487  48.198  43.185  51.519
15564W        W 7488  11.765  44.201  53.332
15565W        W 7489  39.227  32.699  51.504
15566W        W 7490   7.763  31.732  53.810
15567W        W 7491  27.241  18.721  50.594
15568W        W 7492  15.739  24.727  52.403
15569W        W 7493  42.720  37.722  53.330
15570W        W 7494  37.695  24.254  51.954
15571W        W 7495  13.770   2.776  50.160
15572W        W 7496  46.218   4.790  49.689
15573W        W 7497  28.715  15.738  49.671
15574W        W 7498  28.245  43.186  50.153
15575W        W 7499  34.210  44.203  53.779
15576W        W 7500  44.710  45.704  51.042
15577W        W 7501  43.198  40.703  51.976
15578W        W 7502  38.208  40.188  50.145
15579W        W 7503  18.762  14.262  50.141
15580W        W 7504   7.771  27.237  53.791
15581W        W 7505  42.703  28.735  53.800
15582W        W 7506  28.241  11.272  52.429
15583W        W 7507   3.248  17.254  51.054
15584W        W 7508  18.740  40.225  53.360
15585W        W 7509   5.260  46.692  53.813
15586W        W 7510  14.236  26.236  51.495
15587W        W 7511  36.192   1.267  51.958
15588W        W 7512  38.719  39.223  52.860
15589W        W 7513  15.733  37.226  52.436
15590W        W 7514  26.217   2.786  53.317
15591W        W 7515   8.748  21.230  50.581
15592W        W 7516  18.766  48.206  53.321
15593W        W 7517  30.227  38.703  51.075
15594W        W 7518   7.742  42.201  50.160
15595W        W 7519  25.744  46.208  51.525
15596W        W 7520  13.252  40.716  50.156
15597W        W 7521  25.231  11.754  51.988
15598W        W 7522   4.761  29.218  52.881
15599W        W 7523  43.678  26.235  50.603
15600W        W 7524  32.719  23.249  52.876
15601W        W 7525  16.241   7.755  52.865
15602W        W 7526   4.270  42.712  53.330
15603W        W 7527  16.751  15.773  51.065
15604W        W 7528  23.718  34.693  53.785
15605W        W 7529  14.765  31.723  52.433
15606W        W 7530  14.736  38.232  50.147
15607W        W 7531  47.683   0.797  53.348
15608W        W 7532  21.742   2.757  49.701
15609W        W 7533  23.726  13.764  53.317
15610W        W 7534  27.224  23.720  52.880
15611W        W 7535  35.714  41.211  50.579
15612W        W 7536  20.740  17.751  50.583
15613W        W 7537  39.716   6.268  52.420
15614W        W 7538  28.720   3.283  53.773
15615W        W 7539  37.225  43.720  49.691
15616W        W 7540  30.710   4.257  51.047
15617W        W 7541  38.227  33.712  53.781
15618W        W 7542  41.194  23.746  52.882
15619W        W 7543  38.194  13.235  52.894
15620W        W 7544  26.221  18.726  50.136
15621W        W 7545  25.254  23.726  51.524
15622W        W 7546  21.253  37.688  49.700
15623W        W 7547  16.247  14.750  53.804
15624W        W 7548  23.722  45.691  51.959
15625W        W 7549  43.688   8.237  52.875
15626W        W 7550  17.738  16.229  52.860
15627W        W 7551  27.222  41.201  53.800
15628W        W 7552  42.703  47.686  51.062
15629W        W 7553  14.260  28.217  50.155
15630W        W 7554  18.751  21.221  49.696
15631W        W 7555  44.200  13.743  52.900
15632W        W 7556   3.256  17.266  51.961
15633W        W 7557  21.756  11.743  50.123
15634W        W 7558  27.214  27.730  51.047
15635W        W 7559  17.763   1.768  52.888
15636W        W 7560   2.278   8.271  52.411
15637W        W 7561   4.774  27.753  51.041
15638W        W 7562  16.766   7.742  53.340
15639W        W 7563  45.221   5.745  51.494
15640W        W 7564   0.769  31.220  50.135
15641W        W 7565   6.243   1.281  50.610
15642W        W 7566  31.235   7.250  50.587
15643W        W 7567  11.260  34.693  51.491
15644W        W 7568  13.741   1.288  51.494
15645W        W 7569   4.268  48.201  51.963
15646W        W 7570   9.773  22.250  53.335
15647W        W 7571  16.236  14.758  51.068
15648W        W 7572  28.724  31.705  53.340
15649W        W 7573  45.698  36.192  52.447
15650W        W 7574  13.266   7.756  49.672
15651W        W 7575   9.240  22.751  51.072
15652W        W 7576   1.257  14.750  50.127
15653W        W 7577  24.213  25.722  53.804
15654W        W 7578  11.761  31.707  50.619
15655W        W 7579  43.222  16.736  53.780
15656W        W 7580   0.279  22.716  51.499
15657W        W 7581  32.227   7.259  53.780
15658W        W 7582  43.198  43.727  50.128
15659W        W 7583  38.201  20.240  50.599
15660W        W 7584  18.737  23.213  49.673
15661W        W 7585  46.201  10.280  51.495
15662W        W 7586  27.254   4.750  50.600
15663W        W 7587  40.220  26.730  51.982
15664W        W 7588  45.223  43.200  49.704
15665W        W 7589  12.749  46.683  51.533
15666W        W 7590  18.767  19.248  51.953
15667W        W 7591  40.724  42.703  50.613
15668W        W 7592  23.244  36.710  51.039
15669W        W 7593  33.719  40.222  49.681
15670W        W 7594  10.752   0.786  53.813
15671W        W 7595  32.705  42.719  50.156
15672W        W 7596  33.211  30.236  51.053
15673W        W 7597  43.686  39.709  52.412
15674W        W 7598  35.696   2.291  53.324
15675W        W 7599  33.716  35.714  51.039
15676W        W 7600   7.746  10.254  51.036
15677W        W 7601   1.759  48.204  53.789
15678W        W 7602  28.732  47.720  50.123
15679W        W 7603  19.255  35.218  51.037
15680W        W 7604  42.191   5.754  53.337
15681W        W 7605  25.241   1.788  50.143
15682W        W 7606   8.751  37.692  53.321
15683W        W 7607  15.760   9.768  49.678
15684W        W 7608  19.722  39.201  52.411
15685W        W 7609   8.246   0.292  51.961
15686W        W 7610  36.732  11.243  49.688
15687W        W 7611  43.193   6.242  52.876
15688W        W 7612   2.795   9.780  50.583
15689W        W 7613  45.196   3.250  51.504
15690W        W 7614  47.703  32.198  51.534
15691W        W 7615  15.261  32.204  51.963
15692W        W 7616  36.694  11.758  51.516
15693W        W 7617   5.767  23.739  52.904
15694W        W 7618  41.695  17.769  49.707
15695W        W 7619  19.746   4.769  50.619
15696W        W 7620  27.727   5.778  52.890
15697W        W 7621  22.733  35.199  53.782
15698W        W 7622   1.297  41.723  52.871
15699W        W 7623  39.194  10.248  52.403
15700W        W 7624  27.250  11.738  49.697
15701W        W 7625  26.715  11.734  52.874
15702W        W 7626   4.768  36.222  52.864
15703W        W 7627   2.793  11.279  52.864
15704W        W 7628  45.193  11.281  50.131
15705W        W 7629  26.221   5.268  52.882
15706W        W 7630  13.732   1.754  51.528
15707W        W 7631  19.736  47.714  49.692
15708W        W 7632   0.269  27.734  51.514
15709W        W 7633  47.174  32.712  50.141
15710W        W 7634  19.257  27.728  52.896
15711W        W 7635   6.244  27.235  52.886
15712W        W 7636  10.252  31.718  50.135
15713W        W 7637   8.260  31.725  53.337
15714W        W 7638  10.762  18.732  50.617
15715W        W 7639  36.197  18.739  50.157
15716W        W 7640  47.214  16.753  51.512
15717W        W 7641   9.782   2.784  52.436
15718W        W 7642  30.721  18.764  53.324
15719W        W 7643  17.266   4.784  53.345
15720W        W 7644   2.267  36.728  51.507
15721W        W 7645   0.757  32.745  51.949
15722W        W 7646  13.729  39.731  53.357
15723W        W 7647   7.256  10.251  50.620
15724W        W 7648  30.728  23.259  52.419
15725W        W 7649   3.283  42.182  50.620
15726W        W 7650  22.744  25.709  52.902
15727W        W 7651  15.271  24.229  51.077
15728W        W 7652  37.711  44.205  51.956
15729W        W 7653  32.725  44.198  50.610
15730W        W 7654  24.733  38.728  50.614
15731W        W 7655  17.227   1.250  51.508
15732W        W 7656   1.764   3.273  53.340
15733W        W 7657   3.769  10.765  53.323
15734W        W 7658  21.734  44.185  49.675
15735W        W 7659  25.717  30.225  51.957
15736W        W 7660  25.724  42.201  53.354
15737W        W 7661   6.747  28.705  53.780
15738W        W 7662  15.728  11.266  51.500
15739W        W 7663  35.218  36.706  52.900
15740W        W 7664  23.257  48.219  53.790
15741W        W 7665  23.727  31.212  51.063
15742W        W 7666   3.751  13.234  53.776
15743W        W 7667  33.209  28.243  50.591
15744W        W 7668  30.715  33.704  50.581
15745W        W 7669  32.206  37.197  50.155
15746W        W 7670  41.688   8.769  53.331
15747W        W 7671  10.265  45.719  50.144
15748W        W 7672  26.736  12.731  50.158
15749W        W 7673  26.227  18.262  51.970
15750W        W 7674  22.260  24.223  53.319
15751W        W 7675  42.727  44.227  52.410
15752W        W 7676   5.755  37.204  52.869
15753W        W 7677  26.737  14.264  50.129
15754W        W 7678   3.278  18.263  49.669
15755W        W 7679  17.263  12.772  53.816
15756W        W 7680  22.739  39.194  50.126
15757W        W 7681  47.217  37.207  53.804
15758W        W 7682  28.220  36.214  51.992
15759W        W 7683  26.739  37.202  51.498
15760W        W 7684  30.246   3.786  49.669
15761W        W 7685  19.267  37.233  52.863
15762W        W 7686  44.694  14.265  51.058
15763W        W 7687  41.697  40.701  51.956
15764W        W 7688   2.771  15.258  53.318
15765W        W 7689  26.227  47.694  51.069
15766W        W 7690  39.727   7.286  53.814
15767W        W 7691  39.702  45.186  51.061
15768W        W 7692  22.244  21.244  51.054
15769W        W 7693  33.230  45.707  51.966
15770W        W 7694  46.213   0.259  51.510
15771W        W 7695  22.737  14.228  52.898
15772W        W 7696  17.238  21.231  50.121
15773W        W 7697  43.725  12.736  53.357
15774W        W 7698   9.281  39.710  51.490
15775W        W 7699  18.263  33.703  51.065
15776W        W 7700  18.748  34.196  53.800
15777W        W 7701  33.196  13.748  52.411
15778W        W 7702  14.267  48.178  51.953
15779W        W 7703  31.734   3.261  52.904
15780W        W 7704  46.216  28.223  53.779
15781W        W 7705  28.728   7.763  52.866
15782W        W 7706  18.227  35.235  52.405
15783W        W 7707  36.724  41.719  53.816
15784W        W 7708  12.240  18.724  50.122
15785W        W 7709  25.728   6.244  52.435
15786W        W 7710  37.697  23.214  50.616
15787W        W 7711  27.251  47.705  53.358
15788W        W 7712   4.751  26.754  52.902
15789W        W 7713  41.206  44.707  53.347
15790W        W 7714  37.208  13.757  51.036
15791W        W 7715  24.214  16.246  53.346
15792W        W 7716  21.253   0.764  51.061
15793W        W 7717  39.194  40.212  49.680
15794W        W 7718  46.704  21.217  52.896
15795W        W 7719  36.194  30.740  51.511
15796W        W 7720  33.719  33.229  50.578
15797W        W 7721  21.744  37.736  52.413
15798W        W 7722  38.193  16.252  51.050
15799W        W 7723  24.228  28.247  51.491
15800W        W 7724  34.707  35.740  51.985
15801W        W 7725   0.789  10.270  53.805
15802W        W 7726  13.259  20.261  52.440
15803W        W 7727  31.724  34.715  51.050
15804W        W 7728   8.762  17.250  51.073
15805W        W 7729  25.712  12.751  51.501
15806W        W 7730  17.239  47.199  52.422
15807W        W 7731  45.223  16.732  52.859
15808W        W 7732  20.264   6.766  53.349
15809W        W 7733  34.231  17.734  52.893
15810W        W 7734  28.724  36.238  51.966
15811W        W 7735  42.188  13.733  53.349
15812W        W 7736  31.227  10.251  50.598
15813W        W 7737   1.260  13.758  49.694
15814W        W 7738  38.691  18.768  51.956
15815W        W 7739   7.251  18.764  53.359
15816W        W 7740   2.286  13.765  53.343
15817W        W 7741  24.228  44.691  51.505
15818W        W 7742  39.208   5.785  51.492
15819W        W 7743  20.258  12.736  51.969
15820W        W 7744  34.703  36.729  49.696
15821W        W 7745  45.722  22.246  51.977
15822W        W 7746   6.739  44.714  50.165
15823W        W 7747  39.225  41.692  53.787
15824W        W 7748  32.246  47.688  52.902
15825W        W 7749  23.717  11.248  51.958
15826W        W 7750  29.702  32.213  52.407
15827W        W 7751   6.242  33.231  50.579
15828W        W 7752  33.729  25.733  53.337
15829W        W 7753  39.704  22.260  53.813
15830W        W 7754  41.714  33.722  52.891
15831W        W 7755  47.185   4.284  53.773
15832W        W 7756  14.729   1.278  50.165
15833W        W 7757   1.776  14.262  51.974
15834W        W 7758   8.280  22.258  53.353
15835W        W 7759  35.200  16.261  52.445
15836W        W 7760  19.747   9.744  51.049
15837W        W 7761  39.211  41.217  53.334
15838W        W 7762  43.179  12.260  50.155
15839W        W 7763  17.721  38.231  51.504
15840W        W 7764  42.190   6.789  53.788
15841W        W 7765  20.728  20.757  50.581
15842W        W 7766  10.250  26.723  50.612
15843W        W 7767  23.757  18.226  49.672
15844W        W 7768  27.727  15.726  53.321
15845W        W 7769   4.752   3.265  53.786
15846W        W 7770  13.245  10.744  53.332
15847W        W 7771  24.241  36.191  50.149
15848W        W 7772  21.743  40.191  51.502
15849W        W 7773  37.196   8.237  49.696
15850W        W 7774  13.771   7.753  50.605
15851W        W 7775  10.767   0.762  51.034
15852W        W 7776  30.705  12.244  50.144
15853W        W 7777  25.243  24.721  50.141
15854W        W 7778  42.712  27.253  52.437
15855W        W 7779  36.216  18.766  49.700
15856W        W 7780  32.215  43.726  53.802
15857W        W 7781  41.708  13.254  52.426
15858W        W 7782  31.735  37.692  51.076
15859W        W 7783   7.265  43.218  51.054
15860W        W 7784  26.750  18.753  53.802
15861W        W 7785   1.275  10.244  52.408
15862W        W 7786  28.244  34.223  51.051
15863W        W 7787  14.234   7.750  52.428
15864W        W 7788  26.720  35.215  52.902
15865W        W 7789  12.266  28.716  51.050
15866W        W 7790  18.752  38.702  53.785
15867W        W 7791  36.221  32.726  52.442
15868W        W 7792   1.789  25.235  52.418
15869W        W 7793   1.291  41.197  53.776
15870W        W 7794  24.232  40.712  50.592
15871W        W 7795  31.231  40.716  53.325
15872W        W 7796  29.742  44.211  51.516
15873W        W 7797  23.711   1.264  50.588
15874W        W 7798  12.256  21.720  51.517
15875W        W 7799  15.765   0.751  51.494
15876W        W 7800  21.257  40.716  51.951
15877W        W 7801  41.691  11.773  52.895
15878W        W 7802  37.704  45.195  51.960
15879W        W 7803  16.226  35.736  51.524
15880W        W 7804  10.765  17.225  52.428
15881W        W 7805   5.760  40.716  53.352
15882W        W 7806  43.219  24.256  52.861
15883W        W 7807  30.208  14.749  51.959
15884W        W 7808  37.225  21.716  53.326
15885W        W 7809  43.179   2.777  51.036
15886W        W 7810  25.756  23.719  51.954
15887W        W 7811  41.724  17.731  52.878
15888W        W 7812  28.213   0.768  51.073
15889W        W 7813  15.258  10.267  53.352
15890W        W 7814  11.753   6.770  50.605
15891W        W 7815  39.697   7.774  53.788
15892W        W 7816  47.221  28.240  51.508
15893W        W 7817   5.774  23.746  50.137
15894W        W 7818  27.731  22.721  53.325
15895W        W 7819  44.206  37.693  50.619
15896W        W 7820  16.726   2.746  53.359
15897W        W 7821  17.750   7.285  50.164
15898W        W 7822  39.190  37.218  49.710
15899W        W 7823  28.241  35.214  49.703
15900W        W 7824  30.745  39.729  49.685
15901W        W 7825  48.209  27.253  51.049
15902W        W 7826  46.175  41.190  51.534
15903W        W 7827  13.755  26.227  53.801
15904W        W 7828   3.776  10.241  51.976
15905W        W 7829   9.773  33.201  50.592
15906W        W 7830  43.684  14.738  52.431
15907W        W 7831   6.263  22.233  53.779
15908W        W 7832   4.770  45.210  49.668
15909W        W 7833   0.254   5.244  52.420
15910W        W 7834  47.206  31.240  53.316
15911W        W 7835  20.234  15.241  50.613
15912W        W 7836  10.252  25.242  49.710
15913W        W 7837  28.208  36.202  52.888
15914W        W 7838  28.726  30.730  52.409
15915W        W 7839  48.214  20.720  52.861
15916W        W 7840  37.719  25.713  50.589
15917W        W 7841  13.276   8.777  51.046
15918W        W 7842  14.740  25.755  53.817
15919W        W 7843  26.740  42.689  52.429
15920W        W 7844  28.713  47.687  51.976
15921W        W 7845  36.728  31.701  51.531
15922W        W 7846  30.224  10.736  52.877
15923W        W 7847  44.720  18.732  50.599
15924W        W 7848  18.757   1.295  51.059
15925W        W 7849  23.728  35.698  50.159
15926W        W 7850   5.286  40.730  51.497
15927W        W 7851  45.705  26.219  52.888
15928W        W 7852  17.727  32.230  51.050
15929W        W 7853   8.764  41.187  52.404
15930W        W 7854  31.242   0.285  51.074
15931W        W 7855  24.733  33.209  52.404
15932W        W 7856  32.223  32.233  49.702
15933W        W 7857  40.218   1.753  52.903
15934W        W 7858  31.740  37.211  49.696
15935W        W 7859  35.232  21.738  53.317
15936W        W 7860  31.701   2.766  50.602
15937W        W 7861  38.204  32.701  53.794
15938W        W 7862  25.753  39.186  49.691
15939W        W 7863  23.719  34.228  50.619
15940W        W 7864  48.204   2.776  51.979
15941W        W 7865  34.240   1.762  51.497
15942W        W 7866  29.221  15.741  49.683
15943W        W 7867  29.716  14.257  52.446
15944W        W 7868  12.739  45.680  53.319
15945W        W 7869  41.721  14.731  51.499
15946W        W 7870  26.727  31.733  53.337
15947W        W 7871  11.772   3.293  52.404
15948W        W 7872  35.192  28.222  51.071
15949W        W 7873  20.726   1.753  51.991
15950W        W 7874  25.208  32.730  52.897
15951W        W 7875  26.724  42.686  51.952
15952W        W 7876  31.737  46.720  51.947
15953W        W 7877  39.216  44.224  51.517
15954W        W 7878  41.719  17.756  53.358
15955W        W 7879  23.246  39.208  50.605
15956W        W 7880  18.238   6.286  50.622
15957W        W 7881   3.784  29.234  50.150
15958W        W 7882  40.730  34.700  53.802
15959W        W 7883  25.756   3.761  52.885
15960W        W 7884   9.769  31.705  51.054
15961W        W 7885  27.247  33.201  53.774
15962W        W 7886  27.255   1.762  53.359
15963W        W 7887  11.750   9.271  52.876
15964W        W 7888  29.232  43.685  51.990
15965W        W 7889   1.269  30.226  52.889
15966W        W 7890  33.207  17.243  51.063
15967W        W 7891  41.214  33.204  53.794
15968W        W 7892  17.724  12.757  51.950
15969W        W 7893  39.706  29.245  51.054
15970W        W 7894  26.256   9.740  51.515
15971W        W 7895   2.793  22.259  52.427
15972W        W 7896  39.192  26.216  51.985
15973W        W 7897   4.257  15.733  53.803
15974W        W 7898   5.777  36.228  50.614
15975W        W 7899  21.758  33.738  49.679
15976W        W 7900   9.783  45.716  52.884
15977W        W 7901  31.245  16.743  53.810
15978W        W 7902  32.207  37.198  53.320
15979W        W 7903  46.195  14.766  51.521
15980W        W 7904  47.215   7.261  50.583
15981W        W 7905  24.259  36.239  50.581
15982W        W 7906  31.719  23.748  51.527
15983W        W 7907  15.741   3.265  51.501
15984W        W 7908  33.703  38.204  49.680
15985W        W 7909  26.233  46.721  51.071
15986W        W 7910  43.724  22.223  51.510
15987W        W 7911  42.721  39.697  51.052
15988W        W 7912  23.750  28.729  53.798
15989W        W 7913   1.278  11.263  51.072
15990W        W 7914  35.196  42.189  52.439
15991W        W 7915  45.178  42.229  50.604
15992W        W 7916  38.193  30.229  50.598
15993W        W 7917  47.184   8.747  49.693
15994W        W 7918  43.678  41.215  52.867
15995W        W 7919   6.777  42.216  52.415
15996W        W 7920   9.281  44.700  53.341
15997W        W 7921  38.714  10.748  53.803
15998W        W 7922   6.248   8.764  53.334
15999W        W 7923  34.209  36.738  50.596
16000W        W 7924  32.710  16.767  53.357
16001W        W 7925  10.735   8.751  50.126
16002W        W 7926  36.718   6.781  51.953
16003W        W 7927   5.245  17.269  52.887
16004W        W 7928  35.213  19.749  51.061
16005W        W 7929  31.248  14.240  51.515
16006W        W 7930  18.757  47.214  50.151
16007W        W 7931  48.196   2.270  50.585
16008W        W 7932  28.224  38.223  52.407
16009W        W 7933  21.263  20.262  50.138
16010W        W 7934  11.759  34.737  53.791
16011W        W 7935  20.744  33.735  51.498
16012W        W 7936  21.742  26.750  53.335
16013W        W 7937  42.222  10.760  49.685
16014W        W 7938  19.238  47.692  50.618
16015W        W 7939   9.768  45.683  50.149
16016W        W 7940  32.737  29.716  50.587
16017W        W 7941   9.735  34.742  53.361
16018W        W 7942   0.787  42.728  51.971
16019W        W 7943  10.269   9.272  53.337
16020W        W 7944  38.700  17.231  51.494
16021W        W 7945  22.250   2.773  51.055
16022W        W 7946  39.713  22.215  51.963
16023W        W 7947  41.713  42.223  51.499
16024W        W 7948  10.749   4.750  50.603
16025W        W 7949  14.237  18.742  53.798
16026W        W 7950  34.712   9.783  50.605
16027W        W 7951  46.189  14.267  50.150
16028W        W 7952   3.291   0.250  51.989
16029W        W 7953  11.259   6.757  53.338
16030W        W 7954   7.249  40.223  51.949
16031W        W 7955  14.766   5.267  50.584
16032W        W 7956  43.203  17.247  50.127
16033W        W 7957  31.242  20.234  51.500
16034W        W 7958   6.261  45.680  52.882
16035W        W 7959  37.194  32.215  51.987
16036W        W 7960  12.231  19.760  50.147
16037W        W 7961   0.257  13.746  49.685
16038W        W 7962  13.255   7.286  52.869
16039W        W 7963  33.215  38.708  52.444
16040W        W 7964  45.195  21.228  49.690
16041W        W 7965  30.203   1.766  51.503
16042W        W 7966  17.747  23.741  49.681
16043W        W 7967  40.711  25.708  51.044
16044W        W 7968  24.712  45.705  49.697
16045W        W 7969  11.765  15.762  53.353
16046W        W 7970  36.700  18.737  51.036
16047W        W 7971  31.700  36.699  51.963
16048W        W 7972   8.784  47.189  50.622
16049W        W 7973   7.749  23.743  53.817
16050W        W 7974   2.295  36.211  53.816
16051W        W 7975  21.262   4.787  49.681
16052W        W 7976  27.238  18.745  51.981
16053W        W 7977  42.220  31.698  52.878
16054W        W 7978  13.730  37.222  49.704
16055W        W 7979  11.241  37.710  53.358
16056W        W 7980  48.174  28.225  51.054
16057W        W 7981   4.270  46.721  49.708
16058W        W 7982  20.231   2.265  50.141
16059W        W 7983  17.267   4.268  50.598
16060W        W 7984   3.252  39.689  52.860
16061W        W 7985  20.719  45.686  50.148
16062W        W 7986  10.261  35.692  52.866
16063W        W 7987  19.757  40.198  51.078
16064W        W 7988  47.713  33.205  53.782
16065W        W 7989   1.791  13.736  51.531
16066W        W 7990  13.772   5.290  51.034
16067W        W 7991   3.757  42.708  49.692
16068W        W 7992   1.281  13.744  52.870
16069W        W 7993  32.715   5.278  51.495
16070W        W 7994  45.188  28.243  51.054
16071W        W 7995   1.254  24.237  49.690
16072W        W 7996  36.711  13.745  50.140
16073W        W 7997  34.204  12.263  52.900
16074W        W 7998  33.239  45.215  53.801
16075W        W 7999  36.706  38.219  52.872
16076W        W 8000  10.750  15.733  53.350
16077W        W 8001  22.755  26.216  53.320
16078W        W 8002  34.222  21.719  52.875
16079W        W 8003  22.249  43.205  51.053
16080W        W 8004   1.296  32.240  53.346
16081W        W 8005  31.211  46.709  51.975
16082W        W 8006  26.244  20.740  52.412
16083W        W 8007  22.256  24.754  50.605
16084W        W 8008   1.266  19.761  51.052
16085W        W 8009  14.264  44.677  52.887
16086W        W 8010  37.736  41.702  51.966
16087W        W 8011  17.727  24.737  52.899
16088W        W 8012  31.202  40.727  50.155
16089W        W 8013  48.212  25.714  51.510
16090W        W 8014  35.242   3.270  52.878
16091W        W 8015  17.756  24.732  52.441
16092W        W 8016  35.730  22.225  50.610
16093W        W 8017  18.725   4.273  53.786
16094W        W 8018  22.718  44.222  53.361
16095W        W 8019  39.689  10.233  49.687
16096W        W 8020  25.256   7.265  51.520
16097W        W 8021   3.792  37.190  53.788
16098W        W 8022  27.248  34.208  51.494
16099W        W 8023   3.773   4.754  50.133
16100W        W 8024  19.735  29.717  51.957
16101W        W 8025  43.691  17.256  49.687
16102W        W 8026  31.205  42.184  50.594
16103W        W 8027   0.765  21.233  50.130
16104W        W 8028   2.285  39.702  51.075
16105W        W 8029  47.720  30.244  51.496
16106W        W 8030  32.734   8.245  51.981
16107W        W 8031  37.225  43.687  52.404
16108W        W 8032   8.776  22.717  50.584
16109W        W 8033  19.754  43.184  51.054
16110W        W 8034  41.229  29.709  50.591
16111W        W 8035  17.754  37.217  49.685
16112W        W 8036  10.254  16.740  53.321
16113W        W 8037  14.242  17.729  52.414
16114W        W 8038  45.694  15.251  53.788
16115W        W 8039   2.752   0.273  53.344
16116W        W 8040  22.750  21.232  53.324
16117W        W 8041   3.265  23.229  53.797
16118W        W 8042  15.731  15.255  51.497
16119W        W 8043  12.763  37.219  50.132
16120W        W 8044  27.250  46.214  49.707
16121W        W 8045   3.287  43.718  51.529
16122W        W 8046   0.291  34.200  53.336
16123W        W 8047   2.258  24.721  51.509
16124W        W 8048  25.232  45.195  52.901
16125W        W 8049  10.272  13.266  53.802
16126W        W 8050   8.751   2.779  52.435
16127W        W 8051  17.250  36.229  51.977
16128W        W 8052  22.240   5.245  51.976
16129W        W 8053  34.701  14.762  53.780
16130W        W 8054  12.734  24.747  53.805
16131W        W 8055  12.230  36.231  50.126
16132W        W 8056  21.223   9.768  51.070
16133W        W 8057  41.722  22.214  49.672
16134W        W 8058   2.794  38.237  52.409
16135W        W 8059   5.287  31.743  50.122
16136W        W 8060  16.252   4.765  51.520
16137W        W 8061  31.223  10.251  49.705
16138W        W 8062   3.749   8.741  52.427
16139W        W 8063  41.183  13.738  53.343
16140W        W 8064  12.253   5.788  51.962
16141W        W 8065  43.199  22.753  50.592
16142W        W 8066   0.771  46.703  51.034
16143W        W 8067  21.723  11.777  53.353
16144W        W 8068   3.247  13.740  53.810
16145W        W 8069  27.219  27.722  51.494
16146W        W 8070  35.215  45.682  53.351
16147W        W 8071  23.742  39.217  53.320
16148W        W 8072  30.720  17.230  51.055
16149W        W 8073   8.240  33.229  51.060
16150W        W 8074  30.743  41.215  50.596
16151W        W 8075  24.219  47.677  51.034
16152W        W 8076  41.683  42.190  49.704
16153W        W 8077  29.248  23.232  51.963
16154W        W 8078  47.688  36.196  53.329
16155W        W 8079  24.235  39.197  52.864
16156W        W 8080  18.744  45.211  51.978
16157W        W 8081  24.249  13.271  53.360
16158W        W 8082  42.186  19.259  49.691
16159W        W 8083  45.691  32.719  50.621
16160W        W 8084   6.277  30.235  53.786
16161W        W 8085  26.709  35.227  49.687
16162W        W 8086  22.718  28.707  51.982
16163W        W 8087  27.737  36.202  50.129
16164W        W 8088  31.210  13.733  51.043
16165W        W 8089  14.258   6.254  51.528
16166W        W 8090  16.736   1.273  53.336
16167W        W 8091   4.269  47.692  50.587
16168W        W 8092  42.183  12.775  51.967
16169W        W 8093  18.735   5.760  52.447
16170W        W 8094  48.196  25.754  53.317
16171W        W 8095   0.276  15.270  51.047
16172W        W 8096   5.750  11.248  51.060
16173W        W 8097   3.779  30.223  49.703
16174W        W 8098   1.787  20.731  51.049
16175W        W 8099  12.251  43.716  51.060
16176W        W 8100  10.755  33.717  50.153
16177W        W 8101  28.727  12.769  51.503
16178W        W 8102   1.284  19.749  50.586
16179W        W 8103  25.748   7.254  51.050
16180W        W 8104  10.769  12.249  51.042
16181W        W 8105  24.216   6.254  50.617
16182W        W 8106  24.755  24.221  52.414
16183W        W 8107   2.786   5.253  50.131
16184W        W 8108  34.207  33.200  50.604
16185W        W 8109  34.729  23.213  53.359
16186W        W 8110   6.780  17.727  50.124
16187W        W 8111   0.780  37.691  52.875
16188W        W 8112  40.197  31.222  51.979
16189W        W 8113  39.687  18.267  50.597
16190W        W 8114   5.777   2.784  51.035
16191W        W 8115   2.247  23.717  50.619
16192W        W 8116  43.223   0.295  53.320
16193W        W 8117   1.785  16.251  50.621
16194W        W 8118  27.746  39.206  49.686
16195W        W 8119  21.747  14.261  52.421
16196W        W 8120  16.742  39.691  50.144
16197W        W 8121  29.749  38.704  51.988
16198W        W 8122  27.225  16.752  53.786
16199W        W 8123  28.724  35.220  53.809
16200W        W 8124  33.733  20.764  53.327
16201W        W 8125  36.214  43.717  50.620
16202W        W 8126  25.225  13.756  53.348
16203W        W 8127  18.240  41.185  51.513
16204W        W 8128   9.763  37.199  53.803
16205W        W 8129  47.690  19.744  51.973
16206W        W 8130  44.688  17.250  51.041
16207W        W 8131  47.209  42.220  49.665
16208W        W 8132  12.279   4.744  53.347
16209W        W 8133  26.244  10.259  50.147
16210W        W 8134  27.225  23.752  51.947
16211W        W 8135  21.756  27.209  51.497
16212W        W 8136  47.200  36.232  50.592
16213W        W 8137  27.237  24.240  53.321
16214W        W 8138   1.754  38.702  53.360
16215W        W 8139  15.272   7.757  50.610
16216W        W 8140   7.272   8.764  52.437
16217W        W 8141  47.686  11.763  53.802
16218W        W 8142  30.736  34.216  50.616
16219W        W 8143  25.729  26.222  53.778
16220W        W 8144  15.727  19.738  51.062
16221W        W 8145   0.257  45.224  51.955
16222W        W 8146   6.242   4.288  52.405
16223W        W 8147  19.732   5.765  49.703
16224W        W 8148  19.765  46.202  51.499
16225W        W 8149  19.258  21.228  51.064
16226W        W 8150  30.708  15.259  51.963
16227W        W 8151  11.240  40.219  49.672
16228W        W 8152  24.756  40.216  53.337
16229W        W 8153   7.241   8.737  53.816
16230W        W 8154  46.184  23.725  51.524
16231W        W 8155  42.217  34.199  52.422
16232W        W 8156  33.740  23.716  51.496
16233W        W 8157  26.238  31.712  50.593
16234W        W 8158  38.692  19.734  50.581
16235W        W 8159   2.292  40.724  53.780
16236W        W 8160   2.792   9.255  53.786
16237W        W 8161  27.749   1.761  53.813
16238W        W 8162  38.694  10.777  51.498
16239W        W 8163  17.760  22.220  51.506
16240W        W 8164   3.767  38.713  51.968
16241W        W 8165  36.728   5.251  52.439
16242W        W 8166   0.297  13.729  53.774
16243W        W 8167   4.255   1.775  52.428
16244W        W 8168  19.221  42.697  52.866
16245W        W 8169  25.217  36.704  50.587
16246W        W 8170  18.259  42.694  52.897
16247W        W 8171  20.761  13.739  49.682
16248W        W 8172   2.782   0.773  52.868
16249W        W 8173  45.704  22.244  49.686
16250W        W 8174  29.713  46.685  51.077
16251W        W 8175  27.232  34.724  50.616
16252W        W 8176  13.755  28.714  51.040
16253W        W 8177   1.771  46.685  50.580
16254W        W 8178  13.730   0.261  53.336
16255W        W 8179  41.726  22.757  53.813
16256W        W 8180  41.193  31.219  52.436
16257W        W 8181   3.253  10.268  51.524
16258W        W 8182  17.233  26.212  51.045
16259W        W 8183  20.257  20.220  50.127
16260W        W 8184  47.182  30.700  52.417
16261W        W 8185  25.725  39.700  51.981
16262W        W 8186  19.232  48.202  50.609
16263W        W 8187  44.713  42.725  51.978
16264W        W 8188  41.703  39.715  53.777
16265W        W 8189  36.197  39.725  53.812
16266W        W 8190  36.703  23.241  50.580
16267W        W 8191  23.255  48.186  50.583
16268W        W 8192  43.211  34.233  49.678
16269W        W 8193  25.239  33.737  51.055
16270W        W 8194  32.225   8.256  50.608
16271W        W 8195  31.229   4.762  52.860
16272W        W 8196  15.228  41.705  51.979
16273W        W 8197  46.688   5.765  49.669
16274W        W 8198   6.763  11.774  51.978
16275W        W 8199  40.696   6.284  51.952
16276W        W 8200   6.256   1.761  50.588
16277W        W 8201  33.242  45.202  53.351
16278W        W 8202   3.284  43.194  52.886
16279W        W 8203  14.771  43.717  52.867
16280W        W 8204  42.685  23.741  52.442
16281W        W 8205  17.725   5.742  50.154
16282W        W 8206  27.711   7.751  52.870
16283W        W 8207   0.787  23.751  53.319
16284W        W 8208  13.738  14.757  51.985
16285W        W 8209  12.740  45.211  51.525
16286W        W 8210  10.252  28.720  49.685
16287W        W 8211  36.736  18.729  52.860
16288W        W 8212  23.248  34.703  51.957
16289W        W 8213  25.255  37.222  52.869
16290W        W 8214  30.701  14.771  50.142
16291W        W 8215  32.229  26.743  51.501
16292W        W 8216  22.255  14.263  50.151
16293W        W 8217  15.264  43.681  53.333
16294W        W 8218  27.235  23.250  52.440
16295W        W 8219  17.264  25.243  52.414
16296W        W 8220  13.730  27.712  50.589
16297W        W 8221  14.767  32.210  51.955
16298W        W 8222  12.277  17.729  53.813
16299W        W 8223  28.250  37.713  51.513
16300W        W 8224  28.238  22.724  51.057
16301W        W 8225  43.684   8.286  53.347
16302W        W 8226   0.758  35.233  52.424
16303W        W 8227  17.760   4.274  52.443
16304W        W 8228  28.230  44.178  52.434
16305W        W 8229  40.213  18.768  52.870
16306W        W 8230  47.181  19.237  51.070
16307W        W 8231   3.283  23.233  51.515
16308W        W 8232   5.788  14.735  53.808
16309W        W 8233   3.293  17.765  50.152
16310W        W 8234  10.241  25.234  53.772
16311W        W 8235  40.215   7.777  49.699
16312W        W 8236  26.228  31.228  49.669
16313W        W 8237  31.211  34.218  52.432
16314W        W 8238   5.286  14.732  53.805
16315W        W 8239  39.207  22.236  49.669
16316W        W 8240  22.258   7.279  50.591
16317W        W 8241  42.697  38.727  51.984
16318W        W 8242  43.679   0.790  49.667
16319W        W 8243  10.734   4.744  49.687
16320W        W 8244  17.239  11.256  52.863
16321W        W 8245   2.752  32.705  51.523
16322W        W 8246  18.221   1.289  51.946
16323W        W 8247  23.247  13.748  51.079
16324W        W 8248  42.205  47.703  51.495
16325W        W 8249  17.224  42.190  51.046
16326W        W 8250  24.738  13.757  50.131
16327W        W 8251   8.245  10.264  51.514
16328W        W 8252  31.238  30.216  52.883
16329W        W 8253  15.735  34.709  51.972
16330W        W 8254   8.771  45.210  51.046
16331W        W 8255  39.712  31.730  51.046
16332W        W 8256  39.205  44.700  51.506
16333W        W 8257  16.739  18.755  50.149
16334W        W 8258  44.220  21.745  51.978
16335W        W 8259  33.199  15.272  49.680
16336W        W 8260   3.744  43.207  49.673
16337W        W 8261  35.202  20.249  52.883
16338W        W 8262  37.708  39.216  49.679
16339W        W 8263   4.769  26.255  50.622
16340W        W 8264  20.751  21.242  51.505
16341W        W 8265  10.256  16.768  52.896
16342W        W 8266  11.272  39.698  50.129
16343W        W 8267   5.281   6.770  50.144
16344W        W 8268  33.737  30.710  49.673
16345W        W 8269  46.712  30.743  52.409
16346W        W 8270  31.231  27.713  49.705
16347W        W 8271  15.264  11.732  52.894
16348W        W 8272   4.744  30.746  51.529
16349W        W 8273  19.247  42.187  51.517
16350W        W 8274  16.763  10.765  51.496
16351W        W 8275  36.236  36.690  51.049
16352W        W 8276   5.264  25.733  50.136
16353W        W 8277  20.730  28.714  49.698
16354W        W 8278  29.232  42.212  50.121
16355W        W 8279  26.724  20.242  52.447
16356W        W 8280  15.261  10.259  53.790
16357W        W 8281  41.225  41.190  52.441
16358W        W 8282  11.752  46.206  52.869
16359W        W 8283  20.752  43.684  51.526
16360W        W 8284  23.747  19.239  49.681
16361W        W 8285  11.732  29.228  52.901
16362W        W 8286  33.721  33.239  53.343
16363W        W 8287  30.713   3.252  49.689
16364W        W 8288   2.287   3.764  50.610
16365W        W 8289  18.759   0.785  51.502
16366W        W 8290  41.199  20.719  52.404
16367W        W 8291  13.770   5.760  51.964
16368W        W 8292  40.692  23.747  50.165
16369W        W 8293  47.697  24.215  49.676
16370W        W 8294   2.280  32.198  50.137
16371W        W 8295  25.257  44.177  51.061
16372W        W 8296  37.723   5.289  49.694
16373W        W 8297  11.747  32.712  51.535
16374W        W 8298   5.779  40.688  50.128
16375W        W 8299  44.698  10.275  52.900
16376W        W 8300  31.230  43.726  53.339
16377W        W 8301  46.714  28.236  51.516
16378W        W 8302  11.759  16.229  52.862
16379W        W 8303   1.771  44.686  53.793
16380W        W 8304  14.769  16.755  53.808
16381W        W 8305  22.749  40.725  51.510
16382W        W 8306  10.750   9.264  51.494
16383W        W 8307  38.709  38.215  53.786
16384W        W 8308  34.218  18.738  50.615
16385W        W 8309  14.773   2.766  49.703
16386W        W 8310  44.678  19.239  51.533
16387W        W 8311   4.269   9.780  52.413
16388W        W 8312  47.206  17.722  53.355
16389W        W 8313  32.731  26.741  50.126
16390W        W 8314  15.241  20.217  51.528
16391W        W 8315  45.185  12.760  52.442
16392W        W 8316  12.262   0.765  51.958
16393W        W 8317  33.712  10.766  51.519
16394W        W 8318  14.244   8.283  49.700
16395W        W 8319  18.255   3.792  52.887
16396W        W 8320   7.277  20.234  52.404
16397W        W 8321  45.721  23.250  51.953
16398W        W 8322  20.240  12.770  50.151
16399W        W 8323  12.746  42.709  49.667
16400W        W 8324  11.732   0.259  50.145
16401W        W 8325   6.776  21.739  53.799
16402W        W 8326  18.756  34.697  50.594
16403W        W 8327  16.772  37.232  50.578
16404W        W 8328   6.283  36.691  49.684
16405W        W 8329  34.696  26.750  50.157
16406W        W 8330  34.726  40.731  50.157
16407W        W 8331  25.738  11.749  51.063
16408W        W 8332  27.206   8.257  51.517
16409W        W 8333  32.731  23.238  51.037
16410W        W 8334  37.696  22.256  51.991
16411W        W 8335  35.737  17.757  52.444
16412W        W 8336  25.222  19.721  51.514
16413W        W 8337  22.724  16.742  52.865
16414W        W 8338  40.187  40.190  51.983
16415W        W 8339   6.748  20.724  51.988
16416W        W 8340  24.725  28.732  51.046
16417W        W 8341  15.741  27.254  53.795
16418W        W 8342  13.275  26.246  51.951
16419W        W 8343   8.249   8.247  53.794
16420W        W 8344  31.224  19.742  50.147
16421W        W 8345   6.257  11.268  49.671
16422W        W 8346  36.197  39.732  51.066
16423W        W 8347  14.760  40.192  51.077
16424W        W 8348  22.750  13.238  51.078
16425W        W 8349  32.725  38.205  51.987
16426W        W 8350  31.243  32.713  50.581
16427W        W 8351   0.772  18.260  50.130
16428W        W 8352   2.786  22.724  52.446
16429W        W 8353  31.199  32.712  53.334
16430W        W 8354   3.292  35.694  52.892
16431W        W 8355  31.230  14.740  49.703
16432W        W 8356  12.248  26.748  51.966
16433W        W 8357  44.193  14.771  51.948
16434W        W 8358  30.704   2.767  52.899
16435W        W 8359   1.757  34.701  53.331
16436W        W 8360  45.723   2.267  53.808
16437W        W 8361  11.245  35.198  53.798
16438W        W 8362  23.245  48.186  51.511
16439W        W 8363   1.780  47.176  51.077
16440W        W 8364  43.190   5.282  52.862
16441W        W 8365   9.241  21.258  51.068
16442W        W 8366   6.254   9.271  52.430
16443W        W 8367  39.208  32.729  49.671
16444W        W 8368  11.746  13.263  50.584
16445W        W 8369  29.237  35.737  53.782
16446W        W 8370  22.730  18.221  52.435
16447W        W 8371  15.759  20.262  51.952
16448W        W 8372  44.220  31.202  49.703
16449W        W 8373  45.217  38.734  53.346
16450W        W 8374  16.742  38.230  52.447
16451W        W 8375  19.226  37.708  52.408
16452W        W 8376  25.229  42.693  53.356
16453W        W 8377  34.701  21.719  53.794
16454W        W 8378  15.273  40.700  52.407
16455W        W 8379   4.264  42.198  51.508
16456W        W 8380  43.688  12.743  53.777
16457W        W 8381  43.218  18.733  51.949
16458W        W 8382   7.762   5.266  52.439
16459W        W 8383   4.784  43.705  50.133
16460W        W 8384  18.251  16.755  53.805
16461W        W 8385  43.188  38.714  52.437
16462W        W 8386  35.217  23.229  51.063
16463W        W 8387   5.242  40.207  53.792
16464W        W 8388   5.271  22.235  49.667
16465W        W 8389  37.694   0.250  53.786
16466W        W 8390  31.202  18.259  51.045
16467W        W 8391  35.709  22.742  51.530
16468W        W 8392  31.204  26.219  53.809
16469W        W 8393  40.212  20.234  51.518
16470W        W 8394  19.718  30.219  51.046
16471W        W 8395  11.774  17.251  53.775
16472W        W 8396  17.224  42.225  52.429
16473W        W 8397  34.243  37.195  50.145
16474W        W 8398   5.246  37.197  51.957
16475W        W 8399  12.769  11.280  53.337
16476W        W 8400  46.720   2.764  50.590
16477W        W 8401  21.249   5.268  51.518
16478W        W 8402  31.234  18.729  50.131
16479W        W 8403  35.698  14.736  50.579
16480W        W 8404  23.217  21.241  53.813
16481W        W 8405  10.753  32.736  53.787
16482W        W 8406  23.738  44.206  52.429
16483W        W 8407   2.758  23.724  51.508
16484W        W 8408  18.223  38.721  52.876
16485W        W 8409  27.255  31.247  52.887
16486W        W 8410  21.759   2.781  52.407
16487W        W 8411  18.725   3.264  51.969
16488W        W 8412  33.219  12.776  52.426
16489W        W 8413  38.734  48.199  49.670
16490W        W 8414  29.219   5.788  51.045
16491W        W 8415  24.727  11.233  53.782
16492W        W 8416  26.734   6.282  52.440
16493W        W 8417  24.225   1.294  53.797
16494W        W 8418  33.735  26.243  51.520
16495W        W 8419   8.752  18.259  51.968
16496W        W 8420  41.723  24.714  53.348
16497W        W 8421  21.742  21.720  50.134
16498W        W 8422   0.265   8.768  53.358
16499W        W 8423  17.226   1.264  51.046
16500W        W 8424   9.256   2.280  51.492
16501W        W 8425  13.250  13.271  50.123
16502W        W 8426  38.731  41.211  49.682
16503W        W 8427  20.744  12.250  53.323
16504W        W 8428  32.712   7.771  50.121
16505W        W 8429  33.719  14.733  50.619
16506W        W 8430  31.232  43.199  53.789
16507W        W 8431  37.202  15.229  51.056
16508W        W 8432  24.227  26.228  49.705
16509W        W 8433  11.255  34.234  49.671
16510W        W 8434   3.293  25.746  50.614
16511W        W 8435  21.724  31.210  51.035
16512W        W 8436  21.229  23.240  53.323
16513W        W 8437  16.747  29.235  50.129
16514W        W 8438   2.791  36.691  52.418
16515W        W 8439  35.704  19.755  49.706
16516W        W 8440  33.703  35.195  51.978
16517W        W 8441  10.747   0.789  49.679
16518W        W 8442   5.290   8.247  52.863
16519W        W 8443  44.192  25.724  52.871
16520W        W 8444  37.690  20.244  51.969
16521W        W 8445  30.240  42.707  53.804
16522W        W 8446  34.729  29.703  51.072
16523W        W 8447  18.234  36.691  51.989
16524W        W 8448   0.775  43.191  50.136
16525W        W 8449   5.285   0.771  52.895
16526W        W 8450  46.713   4.287  52.404
16527W        W 8451   2.283  40.225  53.333
16528W        W 8452   3.788  15.257  51.510
16529W        W 8453   1.755  21.725  50.593
16530W        W 8454  23.753  14.743  51.037
16531W        W 8455  31.726  39.734  51.058
16532W        W 8456  43.181   1.785  49.666
16533W        W 8457  31.244   4.757  53.805
16534W        W 8458  45.194  22.236  51.041
16535W        W 8459  36.230  47.718  50.131
16536W        W 8460  44.711  22.744  50.129
16537W        W 8461   9.764  38.233  50.586
16538W        W 8462  19.236  44.181  53.353
16539W        W 8463  21.719   1.783  50.146
16540W        W 8464  29.743  28.250  53.320
16541W        W 8465  42.206  36.236  51.079
16542W        W 8466   4.257  13.739  50.623
16543W        W 8467  45.697   2.763  49.673
16544W        W 8468  37.726  10.262  53.784
16545W        W 8469  20.257   3.251  51.490
16546W        W 8470  19.233  45.185  51.075
16547W        W 8471   5.263   1.768  49.709
16548W        W 8472  33.719  13.759  51.034
16549W        W 8473  40.717  46.680  53.347
16550W        W 8474  26.215  12.765  50.145
16551W        W 8475   4.747  12.766  51.046
16552W        W 8476  32.732  26.239  50.138
16553W        W 8477  35.209  45.204  53.792
16554W        W 8478  13.765  39.717  50.130
16555W        W 8479   7.282  39.710  51.074
16556W        W 8480  24.215  41.717  53.811
16557W        W 8481  40.195  17.743  50.124
16558W        W 8482   1.776  20.762  51.955
16559W        W 8483  37.199  34.693  53.810
16560W        W 8484   0.254   4.251  51.529
16561W        W 8485  24.724  42.223  49.700
16562W        W 8486  18.742  26.220  49.683
16563W        W 8487  14.256  38.728  51.035
16564W        W 8488  10.770  12.766  53.317
16565W        W 8489  16.251   9.742  51.043
16566W        W 8490  45.180  47.191  50.138
16567W        W 8491  46.176   5.785  49.689
16568W        W 8492  32.698   8.766  49.694
16569W        W 8493  13.241  33.744  50.611
16570W        W 8494  14.727  10.260  50.601
16571W        W 8495  47.189  11.742  49.680
16572W        W 8496  19.251  36.703  51.076
16573W        W 8497   4.773   6.768  49.685
16574W        W 8498  39.721   4.252  52.442
16575W        W 8499  47.688  38.189  53.803
16576W        W 8500  36.227  21.259  51.532
16577W        W 8501  42.712   5.245  53.788
16578W        W 8502   1.253  14.272  51.967
16579W        W 8503   6.250  42.214  52.410
16580W        W 8504   0.266  24.714  49.671
16581W        W 8505  32.222  42.696  50.593
16582W        W 8506  42.211  32.224  49.676
16583W        W 8507  37.196  23.255  53.806
16584W        W 8508  24.753  13.259  51.986
16585W        W 8509  20.736  23.760  50.597
16586W        W 8510  28.719  48.215  53.333
16587W        W 8511  27.227   0.260  52.889
16588W        W 8512   6.768  10.761  53.779
16589W        W 8513  17.225  22.247  49.683
16590W        W 8514  40.713   6.287  50.593
16591W        W 8515  39.186  26.718  53.327
16592W        W 8516  35.224   7.264  51.523
16593W        W 8517  26.211  21.257  52.896
16594W        W 8518   6.265  30.216  49.692
16595W        W 8519  47.191  35.726  52.425
16596W        W 8520  14.235  29.750  50.140
16597W        W 8521   6.277   2.760  53.791
16598W        W 8522   7.778  25.209  51.039
16599W        W 8523  33.698   3.276  50.598
16600W        W 8524  17.749  25.209  52.875
16601W        W 8525  34.206  43.703  52.889
16602W        W 8526  43.223  14.269  51.525
16603W        W 8527   5.753  12.745  53.799
16604W        W 8528  28.253   0.795  51.983
16605W        W 8529  35.221  24.727  53.781
16606W        W 8530  43.705  20.247  53.338
16607W        W 8531   2.258  35.723  51.493
16608W        W 8532  46.187  32.233  51.948
16609W        W 8533  19.265  15.760  49.675
16610W        W 8534  32.728  35.209  51.042
16611W        W 8535  41.215   2.284  50.138
16612W        W 8536   9.241  44.676  51.491
16613W        W 8537  11.236  19.750  52.426
16614W        W 8538  27.706  19.722  51.511
16615W        W 8539  17.739  19.721  50.153
16616W        W 8540  26.248  31.704  51.501
16617W        W 8541  30.211  41.710  51.977
16618W        W 8542   0.299  29.728  53.334
16619W        W 8543  19.260  31.705  51.975
16620W        W 8544  40.195  27.235  51.074
16621W        W 8545   1.782  24.255  53.809
16622W        W 8546  39.720  35.727  51.533
16623W        W 8547  47.192  38.729  50.146
16624W        W 8548  27.719   2.784  51.045
16625W        W 8549  40.717  11.766  52.427
16626W        W 8550   2.268  22.730  53.816
16627W        W 8551   3.251  36.720  51.049
16628W        W 8552   1.784  41.705  50.603
16629W        W 8553  30.732  42.215  49.696
16630W        W 8554  24.216  14.258  50.580
16631W        W 8555   3.767   3.271  50.581
16632W        W 8556  43.206  26.716  51.518
16633W        W 8557   2.792  14.241  53.773
16634W        W 8558  21.234  37.201  52.881
16635W        W 8559   7.749  13.241  50.601
16636W        W 8560  16.760   3.782  50.616
16637W        W 8561  21.245  34.701  51.053
16638W        W 8562  17.769  34.718  52.423
16639W        W 8563  47.710  33.724  53.335
16640W        W 8564  19.740  26.749  51.982
16641W        W 8565  47.182   0.796  53.340
16642W        W 8566  20.252  23.722  50.607
16643W        W 8567  12.277   8.261  52.860
16644W        W 8568  12.736   9.759  52.434
16645W        W 8569  43.721  44.189  50.136
16646W        W 8570  18.755  13.763  51.064
16647W        W 8571  34.707  41.194  52.869
16648W        W 8572  17.741   2.772  51.989
16649W        W 8573   9.269  44.184  50.594
16650W        W 8574  23.248  44.683  53.787
16651W        W 8575  26.208   2.271  51.048
16652W        W 8576  11.241   1.249  52.446
16653W        W 8577  39.222  11.259  51.987
16654W        W 8578  30.226  33.224  53.354
16655W        W 8579  44.226  45.700  52.404
16656W        W 8580  10.743   0.282  52.411
16657W        W 8581  16.765  12.238  50.584
16658W        W 8582  13.244  34.227  49.709
16659W        W 8583  15.731  44.224  50.616
16660W        W 8584  28.719  39.695  53.355
16661W        W 8585  26.734   9.774  50.154
16662W        W 8586  15.736  47.701  49.707
16663W        W 8587   2.789  21.726  50.162
16664W        W 8588  36.232   7.285  53.319
16665W        W 8589  24.251   6.784  50.141
16666W        W 8590  16.252   3.769  50.124
16667W        W 8591   5.261   5.256  50.140
16668W        W 8592  14.761  44.179  50.599
16669W        W 8593  38.735   6.747  51.512
16670W        W 8594  27.723  33.717  51.515
16671W        W 8595  31.710  22.738  53.326
16672W        W 8596  16.760  19.232  51.526
16673W        W 8597  39.211  27.215  50.595
16674W        W 8598  45.221  36.726  49.701
16675W        W 8599   3.276   5.742  49.699
16676W        W 8600  42.208   8.777  52.444
16677W        W 8601  43.218  30.727  52.865
16678W        W 8602  41.713   1.293  53.806
16679W        W 8603  33.704   4.292  51.079
16680W        W 8604  12.243   9.275  50.577
16681W        W 8605  18.235   5.786  50.594
16682W        W 8606  39.727   1.791  52.870
16683W        W 8607  27.231  13.235  52.883
16684W        W 8608  30.200  37.235  52.894
16685W        W 8609  41.200  43.223  51.530
16686W        W 8610  37.696   7.772  51.510
16687W        W 8611  18.753  37.713  52.415
16688W        W 8612  35.728   5.755  53.334
16689W        W 8613  10.764  19.236  50.596
16690W        W 8614  44.204  45.685  51.034
16691W        W 8615   7.774  45.200  53.317
16692W        W 8616  22.244   1.249  52.887
16693W        W 8617  38.693  44.706  53.357
16694W        W 8618  40.206   3.267  50.601
16695W        W 8619  13.743  27.735  51.535
16696W        W 8620  27.225  25.738  49.695
16697W        W 8621  45.206  47.718  50.580
16698W        W 8622  23.256  45.707  53.347
16699W        W 8623  34.736  25.231  51.983
16700W        W 8624  16.257  30.702  49.669
16701W        W 8625  33.238  33.728  49.683
16702W        W 8626  41.727   5.758  51.983
16703W        W 8627  20.224   5.254  53.344
16704W        W 8628  17.754  14.263  51.506
16705W        W 8629  47.182   9.764  51.974
16706W        W 8630  43.703   6.782  51.067
16707W        W 8631  22.246  44.692  50.599
16708W        W 8632  14.766   2.747  51.059
16709W        W 8633  46.174  20.263  53.816
16710W        W 8634  14.227  40.689  49.684
16711W        W 8635  41.711  20.755  53.817
16712W        W 8636   9.266   7.773  53.335
16713W        W 8637  25.719  11.770  53.790
16714W        W 8638  33.739  17.268  51.949
16715W        W 8639  21.237  24.210  53.788
16716W        W 8640  12.744  17.758  50.122
16717W        W 8641   6.763  29.230  52.411
16718W        W 8642   1.260  36.210  52.889
16719W        W 8643  27.718  46.213  53.803
16720W        W 8644   4.780  41.215  50.150
16721W        W 8645  32.236  47.183  51.961
16722W        W 8646  34.735   6.272  52.886
16723W        W 8647  43.686  45.177  52.882
16724W        W 8648  28.232  13.777  49.687
16725W        W 8649   5.251  16.762  53.356
16726W        W 8650  47.681  39.721  50.124
16727W        W 8651  34.199  29.250  52.871
16728W        W 8652  21.719  22.743  49.687
16729W        W 8653  33.714  13.271  49.668
16730W        W 8654   7.740  33.699  53.779
16731W        W 8655  39.704  35.727  50.137
16732W        W 8656  24.236  38.704  51.068
16733W        W 8657  10.777   7.787  52.902
16734W        W 8658   4.766  16.256  52.445
16735W        W 8659   6.742  46.183  51.047
16736W        W 8660  17.732  41.728  51.034
16737W        W 8661  23.226   4.285  53.320
16738W        W 8662  15.764   8.270  51.961
16739W        W 8663  22.243  44.690  50.161
16740W        W 8664  41.217   1.259  49.665
16741W        W 8665  33.227  21.746  50.618
16742W        W 8666   9.256  13.234  49.676
16743W        W 8667  10.238  30.733  51.077
16744W        W 8668  43.183  41.699  50.129
16745W        W 8669  15.769  19.266  50.585
16746W        W 8670   1.791  37.226  51.972
16747W        W 8671   1.777  45.184  49.707
16748W        W 8672  17.726   1.755  51.535
16749W        W 8673  42.209  27.233  51.535
16750W        W 8674   2.275  18.729  50.133
16751W        W 8675  10.257  39.234  52.419
16752W        W 8676  33.727  23.243  51.959
16753W        W 8677   2.794  12.771  50.613
16754W        W 8678  30.738  16.771  51.072
16755W        W 8679  36.720  21.240  53.347
16756W        W 8680   6.746  22.737  51.980
16757W        W 8681   1.265  17.750  50.124
16758W        W 8682  22.241  45.684  51.967
16759W        W 8683  22.259  47.207  52.872
16760W        W 8684   9.257   9.772  50.150
16761W        W 8685  31.215  11.262  50.163
16762W        W 8686  34.215  27.234  51.509
16763W        W 8687  19.734  29.738  51.038
16764W        W 8688  36.210  47.173  51.533
16765W        W 8689  33.234  24.750  51.527
16766W        W 8690  37.713  39.233  51.526
16767W        W 8691  14.243  33.724  51.056
16768W        W 8692  16.723   3.756  51.493
16769W        W 8693  40.226   5.260  49.675
16770W        W 8694  32.737  39.718  51.969
16771W        W 8695  33.707   0.281  52.408
16772W        W 8696  31.201   2.249  50.583
16773W        W 8697  19.762  25.712  51.509
16774W        W 8698  23.239   8.776  50.622
16775W        W 8699  31.209  34.704  49.698
16776W        W 8700  23.718  45.208  51.076
16777W        W 8701  25.233  13.243  50.615
16778W        W 8702   5.242  14.262  51.513
16779W        W 8703  29.246  41.231  52.880
16780W        W 8704  47.691  15.267  52.867
16781W        W 8705  11.250  23.731  53.798
16782W        W 8706   1.287  13.769  52.426
16783W        W 8707  23.712  16.254  50.588
16784W        W 8708  38.697  38.221  50.599
16785W        W 8709  20.225  25.756  49.665
16786W        W 8710  43.194  39.701  49.670
16787W        W 8711  21.760   4.248  49.686
16788W        W 8712  38.235  29.234  50.158
16789W        W 8713  41.201  31.721  51.066
16790W        W 8714  45.679  27.713  53.811
16791W        W 8715  47.181  32.226  50.150
16792W        W 8716  15.737  36.237  50.163
16793W        W 8717  21.255  23.238  51.951
16794W        W 8718  40.185  34.237  51.530
16795W        W 8719  36.203  23.760  52.888
16796W        W 8720   8.771  16.724  50.589
16797W        W 8721  38.235  36.212  50.595
16798W        W 8722  11.734  26.216  53.324
16799W        W 8723  41.211  40.209  49.678
16800W        W 8724   6.783  38.725  51.518
16801W        W 8725  22.744  48.199  52.900
16802W        W 8726  36.718  16.269  52.866
16803W        W 8727  37.235  21.236  52.877
16804W        W 8728  12.774   2.266  52.904
16805W        W 8729  27.723   3.775  52.883
16806W        W 8730  29.703  25.222  50.154
16807W        W 8731  17.229  46.175  52.872
16808W        W 8732   4.768   3.745  53.811
16809W        W 8733  15.773  11.252  53.795
16810W        W 8734   7.271   3.292  51.059
16811W        W 8735  23.714   6.785  51.062
16812W        W 8736  29.238  28.237  51.508
16813W        W 8737   8.785   9.783  51.971
16814W        W 8738  45.682  15.757  51.054
16815W        W 8739  24.226   9.755  51.052
16816W        W 8740  12.777  15.240  50.604
16817W        W 8741  38.208   6.756  51.040
16818W        W 8742  45.181   3.280  53.350
16819W        W 8743  32.738  25.756  50.141
16820W        W 8744  46.687   8.254  49.688
16821W        W 8745  28.703  12.778  52.899
16822W        W 8746   2.269   4.745  50.583
16823W        W 8747  10.249  47.680  51.955
16824W        W 8748  19.756  23.712  51.947
16825W        W 8749  25.240   7.761  51.947
16826W        W 8750  44.187  13.262  51.042
16827W        W 8751   6.282  36.202  53.358
16828W        W 8752  10.251  18.262  50.162
16829W        W 8753   4.789   1.762  51.954
16830W        W 8754   3.280   6.762  50.127
16831W        W 8755  32.718  21.254  51.060
16832W        W 8756  44.691  28.251  51.047
16833W        W 8757  43.709  33.727  53.813
16834W        W 8758  42.191  16.771  52.903
16835W        W 8759  21.732  30.735  52.888
16836W        W 8760   9.262  33.731  53.357
16837W        W 8761  31.700   7.780  51.952
16838W        W 8762  41.707  42.710  53.321
16839W        W 8763  20.254   4.257  50.613
16840W        W 8764  42.729  41.706  53.347
16841W        W 8765  34.198   8.779  49.685
16842W        W 8766  15.268  46.211  50.131
16843W        W 8767  26.207  45.716  52.885
16844W        W 8768  15.263  40.224  50.622
16845W        W 8769   0.291  45.676  51.983
16846W        W 8770   3.245   8.258  51.950
16847W        W 8771  12.752  44.211  52.890
16848W        W 8772  21.245  48.171  50.619
16849W        W 8773  21.215  42.721  52.431
16850W        W 8774  33.711  34.735  50.135
16851W        W 8775  11.745   6.257  51.519
16852W        W 8776  45.714  46.675  51.043
16853W        W 8777  32.734   0.274  52.443
16854W        W 8778   4.255  28.213  53.817
16855W        W 8779  10.744  22.747  51.070
16856W        W 8780  10.256  46.696  53.318
16857W        W 8781  11.233  37.736  49.698
16858W        W 8782  45.701  35.234  51.992
16859W        W 8783  40.685   3.275  51.965
16860W        W 8784   5.269  29.230  53.344
16861W        W 8785  47.213   8.253  50.159
16862W        W 8786  38.694  39.229  53.772
16863W        W 8787  45.210  11.257  49.698
16864W        W 8788  25.226  11.258  51.522
16865W        W 8789  42.689  36.709  49.705
16866W        W 8790   1.253  22.255  51.065
16867W        W 8791   9.741  44.686  50.583
16868W        W 8792  29.207  25.216  52.865
16869W        W 8793  39.688  14.737  49.673
16870W        W 8794  36.708   8.242  49.689
16871W        W 8795  12.263   5.280  51.968
16872W        W 8796  30.736  26.710  50.583
16873W        W 8797  43.721  10.233  50.587
16874W        W 8798  19.724  46.696  52.446
16875W        W 8799  21.753  17.741  51.070
16876W        W 8800  11.757  37.217  51.079
16877W        W 8801  40.698   1.796  50.132
16878W        W 8802  44.682  19.723  53.795
16879W        W 8803  24.223  18.744  53.357
16880W        W 8804   5.275  47.721  52.880
16881W        W 8805  19.235  38.727  50.595
16882W        W 8806  29.716  39.700  50.609
16883W        W 8807   1.751  23.258  53.790
16884W        W 8808  46.685   6.748  50.608
16885W        W 8809  22.252  29.242  51.531
16886W        W 8810   4.750  19.728  52.439
16887W        W 8811  40.714  23.234  50.127
16888W        W 8812  17.765  27.725  49.684
16889W        W 8813  26.717  39.734  51.042
16890W        W 8814  34.723  41.231  53.333
16891W        W 8815  38.716  31.713  50.591
16892W        W 8816  20.728  22.243  50.134
16893W        W 8817   2.272  19.236  51.514
16894W        W 8818   9.241  20.223  49.692
16895W        W 8819  13.766  13.770  52.440
16896W        W 8820  29.705   4.760  52.898
16897W        W 8821  34.209   2.287  50.608
16898W        W 8822  34.217  33.705  49.696
16899W        W 8823  34.215  21.731  50.606
16900W        W 8824  12.742  39.730  52.881
16901W        W 8825  23.248   3.250  52.879
16902W        W 8826   5.760  21.732  53.320
16903W        W 8827  37.208   5.787  51.957
16904W        W 8828  18.252  44.719  51.954
16905W        W 8829  39.695   3.749  53.777
16906W        W 8830  37.214  44.714  51.497
16907W        W 8831  22.729  29.250  53.325
16908W        W 8832  31.205  37.737  53.348
16909W        W 8833  16.752  37.209  53.814
16910W        W 8834  45.201  45.196  53.808
16911W        W 8835  39.698  28.225  53.344
16912W        W 8836  42.216  41.731  51.991
16913W        W 8837  48.216  12.254  51.500
16914W        W 8838  43.701  44.680  53.781
16915W        W 8839  37.210  35.212  50.132
16916W        W 8840  33.735  23.259  50.163
16917W        W 8841  42.691   4.792  52.904
16918W        W 8842  36.694   7.749  53.323
16919W        W 8843  36.737  44.692  52.419
16920W        W 8844   0.278  42.717  51.527
16921W        W 8845   5.259   4.767  50.140
16922W        W 8846  28.720  16.265  50.590
16923W        W 8847  45.186  14.737  51.515
16924W        W 8848  37.211  42.225  50.130
16925W        W 8849  20.246  39.229  51.495
16926W        W 8850  39.194  29.242  52.436
16927W        W 8851  23.728   0.259  53.775
16928W        W 8852  36.192  23.716  53.772
16929W        W 8853  15.735  31.731  51.053
16930W        W 8854  40.216  33.214  53.327
16931W        W 8855  18.719  15.269  50.145
16932W        W 8856  11.245  11.753  50.126
16933W        W 8857  10.781  45.215  53.320
16934W        W 8858  15.742  20.740  49.702
16935W        W 8859  31.741  10.748  49.671
16936W        W 8860  30.702  43.727  51.517
16937W        W 8861   4.254  10.753  51.522
16938W        W 8862  33.224  25.217  53.803
16939W        W 8863   9.242  13.729  51.962
16940W        W 8864  38.226  30.245  51.980
16941W        W 8865  20.738  10.283  53.320
16942W        W 8866   5.251  31.718  50.594
16943W        W 8867   7.287  47.715  50.164
16944W        W 8868  36.732   5.789  53.317
16945W        W 8869  19.262  27.752  52.427
16946W        W 8870  21.226  27.239  53.788
16947W        W 8871   0.762  42.224  53.802
16948W        W 8872  45.690  34.196  53.317
16949W        W 8873  36.224   5.248  53.775
16950W        W 8874  40.222  38.708  53.343
16951W        W 8875  31.202  28.222  52.427
16952W        W 8876   9.251  35.714  52.901
16953W        W 8877  47.175  28.234  50.590
16954W        W 8878  31.724  12.231  51.065
16955W        W 8879   1.779  32.209  50.614
16956W        W 8880  34.717  17.725  52.881
16957W        W 8881  35.711  33.740  53.804
16958W        W 8882  18.266  40.725  50.595
16959W        W 8883   4.748  25.251  53.806
16960W        W 8884   2.788  28.720  52.859
16961W        W 8885  24.226  29.222  50.142
16962W        W 8886  15.753  35.211  51.503
16963W        W 8887   1.787  33.700  50.128
16964W        W 8888  13.746  14.241  50.579
16965W        W 8889  32.734   5.248  53.327
16966W        W 8890  17.745  40.192  50.597
16967W        W 8891   2.793  48.195  52.442
16968W        W 8892  14.256  17.241  51.506
16969W        W 8893  46.192  41.694  51.523
16970W        W 8894  33.240  13.273  51.035
16971W        W 8895  48.192  11.252  51.971
16972W        W 8896  17.248  34.739  52.423
16973W        W 8897  34.209  36.722  53.361
16974W        W 8898  33.704  43.185  51.047
16975W        W 8899  48.220  47.201  51.060
16976W        W 8900  42.211  19.227  50.160
16977W        W 8901  21.723  40.706  50.161
16978W        W 8902  22.244  34.703  53.323
16979W        W 8903   7.261  41.707  52.423
16980W        W 8904   8.763   5.784  52.409
16981W        W 8905  44.221   6.272  52.444
16982W        W 8906  23.259  12.776  53.356
16983W        W 8907  27.728  14.240  52.433
16984W        W 8908  47.174  12.770  50.137
16985W        W 8909  46.182  41.221  51.033
16986W        W 8910  33.222  33.740  51.985
16987W        W 8911  13.269  31.221  52.430
16988W        W 8912   3.284  20.233  49.667
16989W        W 8913  10.283  47.702  49.666
16990W        W 8914  41.198  34.236  53.783
16991W        W 8915   2.257  11.755  53.806
16992W        W 8916  37.229  13.246  53.322
16993W        W 8917  43.207  25.211  50.577
16994W        W 8918  14.228  40.683  51.069
16995W        W 8919  24.746  13.244  52.904
16996W        W 8920  40.203  47.717  52.861
16997W        W 8921   9.746  41.223  51.529
16998W        W 8922  45.709  17.750  53.349
16999W        W 8923  48.177  30.742  50.136
17000W        W 8924  31.740  42.226  52.447
17001W        W 8925   7.247  32.208  50.614
17002W        W 8926  46.703  32.232  50.159
17003W        W 8927  22.240   1.277  49.672
17004W        W 8928  36.738   3.275  51.051
17005W        W 8929  43.721  33.237  49.671
17006W        W 8930   5.755  23.221  51.492
17007W        W 8931  21.217  23.251  50.127
17008W        W 8932  37.234   0.797  50.595
17009W        W 8933  32.237  38.215  52.886
17010W        W 8934  16.763  22.753  52.436
17011W        W 8935  22.753  10.746  52.427
17012W        W 8936   6.747  39.230  52.860
17013W        W 8937   3.784  22.762  53.805
17014W        W 8938  17.248  44.192  51.982
17015W        W 8939  27.714   8.759  50.601
17016W        W 8940  31.713  44.689  52.409
17017W        W 8941  13.265  39.692  52.412
17018W        W 8942  44.183   2.270  50.132
17019W        W 8943  39.192  26.730  51.981
17020W        W 8944  27.216  16.248  52.880
17021W        W 8945  10.244  17.230  49.674
17022W        W 8946  19.749  31.220  51.042
17023W        W 8947  33.221  12.245  50.124
17024W        W 8948  42.703  13.277  53.346
17025W        W 8949  20.254  35.706  50.598
17026W        W 8950  40.192  43.193  49.672
17027W        W 8951  18.743  35.699  49.679
17028W        W 8952  48.187   2.792  53.789
17029W        W 8953  16.758  21.247  53.800
17030W        W 8954  47.209  41.212  52.439
17031W        W 8955  36.215   0.798  51.053
17032W        W 8956  24.756  38.689  52.901
17033W        W 8957  41.216  45.679  50.145
17034W        W 8958   4.750  36.712  52.903
17035W        W 8959   5.261  16.252  52.903
17036W        W 8960  24.730  14.741  51.078
17037W        W 8961  27.735  23.240  51.992
17038W        W 8962  29.228  32.726  51.987
17039W        W 8963  36.205  35.198  51.508
17040W        W 8964  39.730  46.174  52.406
17041W        W 8965  36.717  18.734  53.361
17042W        W 8966  22.256  22.735  53.812
17043W        W 8967  38.190  28.707  50.603
17044W        W 8968  17.237  43.704  50.602
17045W        W 8969  44.224   7.758  50.613
17046W        W 8970   9.778   5.776  53.803
17047W        W 8971  11.759  43.714  52.419
17048W        W 8972   9.243  42.215  53.345
17049W        W 8973  34.727  41.687  50.616
17050W        W 8974   2.747   3.253  52.872
17051W        W 8975   2.263  32.210  49.665
17052W        W 8976   4.268   1.757  51.042
17053W        W 8977  12.758  16.273  49.694
17054W        W 8978  45.219  37.694  52.445
17055W        W 8979  30.727  24.750  51.991
17056W        W 8980  40.204  10.776  51.069
17057W        W 8981   9.775   1.257  51.983
17058W        W 8982  15.263  19.762  51.532
17059W        W 8983  22.230  37.227  52.884
17060W        W 8984  45.699  40.709  49.694
17061W        W 8985  31.708  21.230  49.691
17062W        W 8986   2.247   3.278  51.044
17063W        W 8987   4.765  27.230  51.078
17064W        W 8988   0.261   0.258  49.705
17065W        W 8989   9.766  31.713  51.519
17066W        W 8990  45.220  46.682  52.869
17067W        W 8991   0.785   5.769  51.490
17068W        W 8992  11.758  38.215  50.127
17069W        W 8993   9.765  30.221  53.800
17070W        W 8994  15.275  27.728  51.059
17071W        W 8995  38.696  21.223  53.358
17072W        W 8996  16.227   2.285  49.698
17073W        W 8997  11.234  47.172  49.665
17074W        W 8998  24.254  21.224  51.520
17075W        W 8999   6.788   6.283  51.079
17076W        W 9000  40.216  35.234  49.700
17077W        W 9001  22.759  21.757  49.690
17078W        W 9002  25.738  25.213  52.878
17079W        W 9003  45.720   3.791  50.584
17080W        W 9004  20.718   7.246  51.958
17081W        W 9005  20.250  31.739  52.436
17082W        W 9006   2.286  20.226  53.789
17083W        W 9007  44.725  26.719  50.608
17084W        W 9008  14.733   5.777  51.529
17085W        W 9009   1.765  39.205  51.971
17086W        W 9010   9.736  37.231  49.690
17087W        W 9011   3.754  23.725  50.147
17088W        W 9012  33.236   2.267  51.967
17089W        W 9013  10.749   6.773  51.497
17090W        W 9014  34.209   7.782  51.988
17091W        W 9015  34.736  43.684  53.804
17092W        W 9016   6.265  35.718  50.164
17093W        W 9017  11.732  44.723  52.427
17094W        W 9018  44.220  21.756  51.068
17095W        W 9019  32.710  37.237  53.808
17096W        W 9020  28.246  37.734  52.894
17097W        W 9021  39.690  30.736  51.049
17098W        W 9022  23.759  37.731  51.978
17099W        W 9023   7.276   6.275  52.869
17100W        W 9024  30.229  16.736  53.328
17101W        W 9025   4.754  43.186  51.523
17102W        W 9026  32.215  19.250  49.686
17103W        W 9027  48.215  29.234  51.517
17104W        W 9028  32.715  11.274  50.127
17105W        W 9029  29.220  12.276  49.687
17106W        W 9030  35.738  46.209  50.145
17107W        W 9031  39.689  40.220  53.802
17108W        W 9032  24.234   4.244  51.984
17109W        W 9033  29.741  36.191  53.355
17110W        W 9034   0.772  19.235  53.326
17111W        W 9035  33.701  39.208  53.358
17112W        W 9036  22.257   2.288  51.038
17113W        W 9037  27.245  30.705  50.604
17114W        W 9038  26.717  25.749  52.431
17115W        W 9039  30.720   1.290  51.493
17116W        W 9040  32.720  31.224  51.992
17117W        W 9041  11.744  12.244  51.982
17118W        W 9042  22.223   6.781  50.621
17119W        W 9043  48.180   2.280  52.448
17120W        W 9044  34.716  43.188  52.871
17121W        W 9045  33.219   5.285  52.447
17122W        W 9046  25.215  24.715  50.583
17123W        W 9047  31.244  33.732  51.493
17124W        W 9048  23.757  41.704  53.333
17125W        W 9049  16.224   3.760  52.866
17126W        W 9050  38.708  37.232  52.882
17127W        W 9051  25.227  31.217  53.331
17128W        W 9052  30.246   7.753  53.813
17129W        W 9053   6.764  24.212  50.155
17130W        W 9054  24.757  42.217  51.956
17131W        W 9055   8.255  11.233  49.685
17132W        W 9056  40.187  45.699  51.980
17133W        W 9057   6.261  39.208  49.697
17134W        W 9058  19.758  41.191  50.594
17135W        W 9059  30.218  28.238  51.500
17136W        W 9060   7.268   6.260  51.518
17137W        W 9061  47.700  35.722  51.977
17138W        W 9062  33.743  45.717  51.951
17139W        W 9063  31.213  29.207  49.685
17140W        W 9064  28.212  30.248  50.128
17141W        W 9065  16.235  39.691  50.584
17142W        W 9066  19.250  40.223  50.618
17143W        W 9067  22.725  45.701  52.888
17144W        W 9068  18.221  25.209  52.426
17145W        W 9069  22.232  25.714  50.586
17146W        W 9070  13.229  45.186  51.048
17147W        W 9071   3.271  27.226  50.150
17148W        W 9072  12.233  13.734  49.689
17149W        W 9073  40.689  47.182  50.121
17150W        W 9074  17.746  36.193  53.793
17151W        W 9075  42.198  18.762  50.128
17152W        W 9076  25.217  19.237  52.418
17153W        W 9077  10.739  48.186  50.153
17154W        W 9078   2.792  16.224  51.067
17155W        W 9079  28.228  43.213  51.051
17156W        W 9080   1.291  24.723  51.059
17157W        W 9081  29.225  32.711  52.883
17158W        W 9082  30.712  25.214  51.060
17159W        W 9083  28.236  45.721  53.343
17160W        W 9084  23.230  42.726  50.592
17161W        W 9085   6.267  41.715  51.954
17162W        W 9086  24.751  35.194  49.670
17163W        W 9087  41.197  47.717  52.448
17164W        W 9088  48.202  45.201  52.883
17165W        W 9089  21.223  37.221  49.670
17166W        W 9090   9.272  22.745  51.510
17167W        W 9091  34.703  37.699  51.073
17168W        W 9092  19.250  16.771  53.779
17169W        W 9093  11.256   8.759  53.354
17170W        W 9094  37.699  24.246  52.870
17171W        W 9095  47.690   0.793  52.427
17172W        W 9096  39.720   8.736  51.064
17173W        W 9097  38.224  22.254  50.614
17174W        W 9098  35.201  43.197  52.413
17175W        W 9099  17.760   3.285  50.143
17176W        W 9100  21.723  46.687  50.165
17177W        W 9101  47.212  26.243  49.671
17178W        W 9102   7.269  41.202  49.673
17179W        W 9103  25.245  46.186  51.967
17180W        W 9104  29.726  38.709  51.057
17181W        W 9105  33.208  35.721  53.349
17182W        W 9106   2.249  35.727  50.147
17183W        W 9107   9.270  26.733  50.124
17184W        W 9108   6.759  31.226  50.143
17185W        W 9109  18.751  35.693  50.164
17186W        W 9110   6.779  40.222  52.428
17187W        W 9111  45.215  12.778  50.123
17188W        W 9112  14.262  26.223  51.968
17189W        W 9113  18.744  38.733  51.077
17190W        W 9114  39.726  36.200  52.407
17191W        W 9115   4.274  13.233  50.591
17192W        W 9116   6.246  24.726  49.702
17193W        W 9117  36.716  47.713  51.531
17194W        W 9118  37.229   3.246  52.419
17195W        W 9119  27.708  22.232  51.529
17196W        W 9120  17.258  19.237  52.874
17197W        W 9121   6.745   4.747  53.772
17198W        W 9122  15.732   2.251  51.058
17199W        W 9123  42.183   5.289  53.811
17200W        W 9124  19.752  34.707  52.403
17201W        W 9125   3.289  26.249  51.077
17202W        W 9126  35.192  10.256  52.437
17203W        W 9127  40.717  38.735  53.812
17204W        W 9128   6.787  33.743  49.679
17205W        W 9129   7.274   6.772  49.688
17206W        W 9130   5.745  10.745  49.698
17207W        W 9131  18.738  18.228  52.441
17208W        W 9132  12.258  41.728  50.148
17209W        W 9133  26.711  37.207  50.162
17210W        W 9134  30.207  24.713  50.611
17211W        W 9135  40.204  38.194  49.671
17212W        W 9136  31.205  34.711  50.591
17213W        W 9137  13.775  22.713  50.600
17214W        W 9138  24.719   6.285  51.503
17215W        W 9139  30.706  43.192  53.800
17216W        W 9140  16.224  47.173  52.890
17217W        W 9141  11.242   8.284  50.136
17218W        W 9142  39.694  12.269  52.420
17219W        W 9143  10.249  48.178  53.782
17220W        W 9144   3.781  10.762  51.516
17221W        W 9145  43.204   7.783  51.073
17222W        W 9146   6.260  37.700  49.666
17223W        W 9147  42.703  34.195  49.699
17224W        W 9148  34.722   2.256  51.035
17225W        W 9149  47.211  15.244  52.431
17226W        W 9150   5.741  31.206  53.787
17227W        W 9151  15.725   4.776  49.706
17228W        W 9152  34.724  45.708  51.071
17229W        W 9153  22.255  43.229  52.895
17230W        W 9154   9.763  46.212  50.159
17231W        W 9155  29.205  18.762  53.333
17232W        W 9156  12.265  42.214  53.329
17233W        W 9157  46.677  33.720  51.049
17234W        W 9158  40.685   6.750  50.584
17235W        W 9159   2.271  30.715  52.879
17236W        W 9160  43.724   3.268  53.350
17237W        W 9161  44.200  30.224  53.328
17238W        W 9162  46.695  14.256  52.433
17239W        W 9163  45.722  25.745  51.511
17240W        W 9164  15.271   8.737  51.529
17241W        W 9165  34.707  25.728  51.505
17242W        W 9166   4.269  25.720  52.895
17243W        W 9167  34.713  44.700  52.884
17244W        W 9168   6.273   2.772  51.056
17245W        W 9169   7.779   0.289  52.877
17246W        W 9170   0.283  29.228  49.695
17247W        W 9171  32.701  19.257  52.876
17248W        W 9172  43.221  35.211  49.684
17249W        W 9173   6.242  12.742  52.411
17250W        W 9174  33.205  30.736  51.054
17251W        W 9175   8.240  25.753  51.048
17252W        W 9176  48.219  15.228  52.428
17253W        W 9177  11.733  24.749  50.141
17254W        W 9178  29.724   1.773  51.948
17255W        W 9179   7.246  36.240  51.508
17256W        W 9180  20.260   3.763  53.326
17257W        W 9181  25.244  45.211  50.592
17258W        W 9182  34.714   1.261  49.693
17259W        W 9183  18.237  24.739  51.974
17260W        W 9184  35.730  27.754  51.507
17261W        W 9185  36.231   9.279  53.789
17262W        W 9186   9.737   3.782  51.959
17263W        W 9187  44.721  11.759  50.134
17264W        W 9188  33.739  11.749  53.333
17265W        W 9189  11.237   6.280  52.895
17266W        W 9190  28.246  23.711  50.149
17267W        W 9191  40.209  12.732  52.903
17268W        W 9192  38.705  12.268  51.498
17269W        W 9193  34.730  18.237  53.316
17270W        W 9194  32.219  22.235  51.498
17271W        W 9195  16.758  24.242  51.050
17272W        W 9196   7.773  17.748  53.322
17273W        W 9197  34.710  19.746  50.153
17274W        W 9198  31.714   0.782  51.976
17275W        W 9199  35.202  11.751  51.515
17276W        W 9200  30.738  46.716  51.070
17277W        W 9201  21.733  35.192  50.618
17278W        W 9202  21.749   4.254  53.806
17279W        W 9203  12.233  31.225  52.896
17280W        W 9204  21.747   0.268  52.865
17281W        W 9205  14.744  24.219  51.953
17282W        W 9206  12.241  46.713  52.437
17283W        W 9207   5.262  38.688  51.036
17284W        W 9208  25.725  31.746  52.418
17285W        W 9209  45.195   5.263  50.588
17286W        W 9210  45.199   6.282  51.531
17287W        W 9211   2.769  35.720  52.423
17288W        W 9212   5.250  29.723  53.360
17289W        W 9213   5.743   3.293  52.885
17290W        W 9214  47.208   4.779  52.862
17291W        W 9215   6.779  13.269  51.947
17292W        W 9216  11.768   4.747  53.780
17293W        W 9217  10.273   0.759  50.137
17294W        W 9218  38.699  22.719  53.323
17295W        W 9219  24.213  41.693  53.349
17296W        W 9220  10.240  21.714  52.865
17297W        W 9221  15.273  35.237  49.692
17298W        W 9222  37.721  38.720  53.357
17299W        W 9223  27.718  37.197  50.140
17300W        W 9224  35.196  37.212  52.895
17301W        W 9225  23.241  33.730  51.984
17302W        W 9226  29.227  46.709  49.694
17303W        W 9227  20.235  32.202  53.354
17304W        W 9228  15.727  31.742  53.778
17305W        W 9229  10.772  42.225  52.869
17306W        W 9230   5.270  33.205  51.977
17307W        W 9231   2.257  30.228  51.986
17308W        W 9232  37.219  23.732  51.061
17309W        W 9233  42.213   5.255  51.072
17310W        W 9234   2.781  26.211  53.332
17311W        W 9235   2.785   7.252  53.351
17312W        W 9236  30.744  35.216  51.950
17313W        W 9237  37.695  32.711  50.593
17314W        W 9238  21.232  11.762  52.889
17315W        W 9239   0.775  46.195  53.346
17316W        W 9240  30.245  42.688  53.355
17317W        W 9241  27.207  31.238  52.412
17318W        W 9242  46.715   4.254  50.601
17319W        W 9243  47.208  30.210  52.895
17320W        W 9244  14.763  19.233  52.405
17321W        W 9245  14.241  22.245  53.345
17322W        W 9246   1.294  37.734  50.140
17323W        W 9247  12.253  35.193  49.700
17324W        W 9248  41.182  43.195  51.065
17325W        W 9249  33.723   5.781  53.321
17326W        W 9250  30.717   3.293  51.518
17327W        W 9251  18.246   6.751  51.046
17328W        W 9252  22.246  33.215  50.618
17329W        W 9253  13.760  25.715  51.953
17330W        W 9254  25.719  13.770  51.532
17331W        W 9255  24.742  29.701  51.507
17332W        W 9256  38.226   2.262  49.682
17333W        W 9257  44.684  15.735  52.440
17334W        W 9258  24.750  22.237  51.499
17335W        W 9259  47.220  19.228  50.131
17336W        W 9260   6.765  28.210  51.968
17337W        W 9261  22.743  14.227  51.968
17338W        W 9262  11.243   3.759  51.960
17339W        W 9263  38.203  18.761  50.616
17340W        W 9264  34.711  48.181  50.157
17341W        W 9265  34.706  31.238  51.978
17342W        W 9266  33.697  37.228  49.706
17343W        W 9267  24.259  37.732  49.707
17344W        W 9268  31.231  32.224  51.984
17345W        W 9269  40.206  16.259  53.790
17346W        W 9270  21.236  21.757  51.971
17347W        W 9271  13.229  40.717  51.497
17348W        W 9272   5.781  27.252  52.901
17349W        W 9273  47.705  12.277  52.861
17350W        W 9274  13.767   2.275  52.409
17351W        W 9275  37.195  12.252  49.710
17352W        W 9276  44.198  46.685  49.676
17353W        W 9277  23.241  23.227  49.687
17354W        W 9278  40.727  41.725  49.672
17355W        W 9279  16.266  23.753  52.435
17356W        W 9280  36.727   6.270  53.785
17357W        W 9281  11.236  37.222  52.898
17358W        W 9282  23.245  41.714  52.439
17359W        W 9283   4.791  37.227  52.874
17360W        W 9284  22.250  39.727  51.526
17361W        W 9285  46.688  27.215  52.438
17362W        W 9286  27.713   4.268  51.498
17363W        W 9287  35.713  43.197  53.817
17364W        W 9288  41.691  48.204  51.039
17365W        W 9289  23.233   3.267  51.963
17366W        W 9290  14.235  37.713  52.429
17367W        W 9291   3.750  26.251  50.127
17368W        W 9292   9.269  38.690  51.068
17369W        W 9293  40.205   0.286  49.692
17370W        W 9294  35.695   4.749  51.057
17371W        W 9295  27.739   1.782  49.668
17372W        W 9296   9.268  19.736  50.152
17373W        W 9297  47.211   0.269  51.982
17374W        W 9298   7.758   1.256  52.443
17375W        W 9299  22.745  36.730  50.612
17376W        W 9300  19.732  21.250  51.949
17377W        W 9301  44.705  33.214  50.152
17378W        W 9302  14.231  26.735  53.795
17379W        W 9303   8.779  24.717  53.343
17380W        W 9304  10.775  45.215  51.971
17381W        W 9305  39.725   1.777  50.607
17382W        W 9306  34.710  35.696  50.123
17383W        W 9307  17.748  35.703  52.886
17384W        W 9308  40.722  28.241  53.345
17385W        W 9309   9.771   1.249  51.492
17386W        W 9310  41.709  47.698  52.417
17387W        W 9311  16.249  39.215  50.143
17388W        W 9312   4.284  18.758  52.881
17389W        W 9313  32.730  22.229  51.079
17390W        W 9314   4.757  11.745  52.904
17391W        W 9315   8.744  26.222  53.785
17392W        W 9316  21.728  39.691  51.065
17393W        W 9317  35.232  44.190  51.074
17394W        W 9318  45.687  35.233  53.361
17395W        W 9319  19.242   3.745  52.430
17396W        W 9320  48.185  41.729  53.784
17397W        W 9321  39.690  35.691  51.060
17398W        W 9322  47.674  11.757  51.524
17399W        W 9323  32.222   9.752  50.620
17400W        W 9324  31.705  40.716  53.355
17401W        W 9325  38.688   6.271  53.340
17402W        W 9326  41.698  24.717  51.065
17403W        W 9327  42.181  26.739  50.151
17404W        W 9328  26.756  33.715  53.321
17405W        W 9329  24.724  14.240  51.981
17406W        W 9330  48.180  40.230  49.688
17407W        W 9331  43.184   6.746  51.075
17408W        W 9332   1.768  41.729  52.414
17409W        W 9333  18.258  41.215  50.142
17410W        W 9334  12.738  42.204  51.529
17411W        W 9335  11.241  20.740  51.077
17412W        W 9336  27.740  42.197  52.408
17413W        W 9337  42.183  41.725  53.350
17414W        W 9338  19.721  35.222  51.495
17415W        W 9339  37.721  32.237  50.165
17416W        W 9340  46.682   9.249  53.810
17417W        W 9341   9.248   1.295  53.326
17418W        W 9342  25.232  14.252  53.343
17419W        W 9343  39.698   6.775  53.341
17420W        W 9344  19.246  45.716  52.447
17421W        W 9345  45.197  25.227  51.989
17422W        W 9346  36.690  31.698  51.061
17423W        W 9347  26.716  31.709  50.606
17424W        W 9348  32.725  20.259  51.970
17425W        W 9349  29.233  16.249  51.492
17426W        W 9350   8.777  40.220  51.060
17427W        W 9351  15.256  17.722  49.706
17428W        W 9352  14.773   0.758  50.621
17429W        W 9353  29.234  45.197  50.148
17430W        W 9354  24.724  19.242  53.778
17431W        W 9355  19.268   2.250  50.147
17432W        W 9356   6.778   2.283  51.497
17433W        W 9357   0.786  14.249  49.708
17434W        W 9358  19.746   5.270  49.676
17435W        W 9359  17.723  12.746  51.074
17436W        W 9360  31.707  39.224  51.496
17437W        W 9361  25.249  29.717  52.412
17438W        W 9362  10.276  14.239  51.036
17439W        W 9363  31.700  48.194  53.810
17440W        W 9364  28.713   9.755  51.033
17441W        W 9365  45.201   2.751  51.957
17442W        W 9366   1.789  38.703  51.503
17443W        W 9367  30.228  36.222  49.700
17444W        W 9368  25.736   9.771  50.146
17445W        W 9369  13.278  26.738  49.679
17446W        W 9370  32.743  31.747  50.584
17447W        W 9371  38.188  12.754  53.341
17448W        W 9372  20.236   4.779  53.778
17449W        W 9373   7.254   7.283  52.439
17450W        W 9374  22.758  36.205  51.039
17451W        W 9375  45.184  36.220  53.318
17452W        W 9376   0.785   1.759  50.156
17453W        W 9377   6.248  24.727  53.352
17454W        W 9378  13.747   6.288  51.491
17455W        W 9379  35.218  15.232  51.967
17456W        W 9380  43.180   1.775  52.891
17457W        W 9381  37.726  42.710  52.444
17458W        W 9382   4.769  20.251  53.331
17459W        W 9383  39.229  15.731  51.046
17460W        W 9384  39.714  23.254  51.500
17461W        W 9385   6.768  44.709  51.054
17462W        W 9386   8.283  44.685  49.692
17463W        W 9387  25.716   8.751  53.794
17464W        W 9388  26.240  40.224  51.074
17465W        W 9389  44.216  17.754  50.157
17466W        W 9390  24.716  46.690  49.675
17467W        W 9391  43.711  44.196  52.412
17468W        W 9392  47.190  27.711  51.064
17469W        W 9393  16.754  25.710  51.949
17470W        W 9394  34.240  24.719  49.702
17471W        W 9395  21.251  22.237  53.784
17472W        W 9396  23.262  42.684  53.799
17473W        W 9397  39.189  18.737  53.355
17474W        W 9398  27.722  21.220  50.621
17475W        W 9399  14.750  16.767  51.987
17476W        W 9400  34.220  47.217  51.521
17477W        W 9401  17.269  37.713  50.582
17478W        W 9402  27.725  26.231  50.155
17479W        W 9403  10.280   7.262  49.665
17480W        W 9404  19.257   0.784  53.340
17481W        W 9405  12.247  40.690  51.515
17482W        W 9406  39.220  29.208  51.494
17483W        W 9407  48.207  47.200  52.900
17484W        W 9408  16.224  41.718  51.078
17485W        W 9409   8.286  42.216  52.891
17486W        W 9410   8.760  18.268  51.490
17487W        W 9411  11.281  19.754  50.607
17488W        W 9412   1.752  29.703  49.687
17489W        W 9413  29.744  46.175  51.064
17490W        W 9414  34.233  40.726  53.791
17491W        W 9415   8.249  28.231  52.430
17492W        W 9416   0.281  23.239  49.667
17493W        W 9417  30.705  28.739  50.623
17494W        W 9418  20.722   5.787  50.587
17495W        W 9419  39.726  38.203  53.327
17496W        W 9420   3.289  42.701  52.426
17497W        W 9421  18.255  10.278  53.337
17498W        W 9422  42.227  20.760  50.133
17499W        W 9423   2.773  10.778  52.878
17500W        W 9424  22.229  28.723  52.899
17501W        W 9425   3.261  42.710  50.153
17502W        W 9426   7.281  34.225  51.050
17503W        W 9427   8.773  40.201  52.864
17504W        W 9428  17.267  44.699  50.600
17505W        W 9429   6.274  33.723  49.676
17506W        W 9430  48.205  31.246  52.902
17507W        W 9431  25.225  16.739  52.428
17508W        W 9432   5.287  35.701  53.338
17509W        W 9433  42.715  33.729  51.040
17510W        W 9434  22.223  27.253  49.693
17511W        W 9435  21.736  29.203  53.321
17512W        W 9436  26.732  23.231  51.535
17513W        W 9437  39.212  35.712  51.491
17514W        W 9438  37.713  31.709  51.963
17515W        W 9439  36.232   4.768  52.883
17516W        W 9440  33.711  47.180  52.872
17517W        W 9441  23.724  15.225  52.883
17518W        W 9442  21.264  27.750  51.529
17519W        W 9443  23.731  16.251  52.869
17520W        W 9444  36.238  42.709  52.892
17521W        W 9445  27.720  45.204  52.419
17522W        W 9446  25.708  36.191  51.510
17523W        W 9447   9.282  32.724  52.420
17524W        W 9448  13.236   0.263  53.814
17525W        W 9449   0.251   8.768  51.984
17526W        W 9450  15.241  26.226  49.699
17527W        W 9451  25.250  28.216  50.607
17528W        W 9452  24.254  23.251  51.056
17529W        W 9453   8.242  32.716  53.817
17530W        W 9454   2.252  30.207  53.323
17531W        W 9455  18.253  23.750  53.815
17532W        W 9456  10.733  27.224  53.796
17533W        W 9457  34.693   0.789  52.869
17534W        W 9458  30.746   0.257  51.984
17535W        W 9459  13.734  26.739  52.897
17536W        W 9460  32.204   9.265  50.607
17537W        W 9461   8.252  12.743  50.586
17538W        W 9462  25.738   5.769  51.975
17539W        W 9463  44.724  27.717  51.964
17540W        W 9464  23.250  21.220  50.164
17541W        W 9465   3.754   8.241  51.991
17542W        W 9466  12.762   3.280  53.800
17543W        W 9467  47.705  18.751  51.522
17544W        W 9468  37.210  34.739  51.953
17545W        W 9469  27.220  45.718  51.533
17546W        W 9470  38.211  41.700  51.054
17547W        W 9471   0.256  35.203  51.516
17548W        W 9472  34.731   4.784  52.407
17549W        W 9473  24.212  27.712  50.587
17550W        W 9474  43.711  41.711  50.615
17551W        W 9475   6.268  15.746  53.814
17552W        W 9476  23.741   2.256  50.129
17553W        W 9477  28.752  19.224  52.425
17554W        W 9478  48.192   1.271  51.494
17555W        W 9479  27.706   3.791  53.347
17556W        W 9480  22.231  33.717  53.808
17557W        W 9481  48.172  44.683  51.977
17558W        W 9482   6.286   5.754  53.324
17559W        W 9483  21.743   3.280  49.703
17560W        W 9484   9.282  35.236  50.586
17561W        W 9485  10.754  14.764  51.973
17562W        W 9486  27.751  28.206  51.955
17563W        W 9487   9.255  15.235  53.327
17564W        W 9488   3.283   8.740  53.322
17565W        W 9489  14.739   9.755  53.817
17566W        W 9490  46.711  16.250  50.132
17567W        W 9491   4.743  25.230  51.976
17568W        W 9492  14.736  31.229  52.902
17569W        W 9493  17.724  30.201  52.428
17570W        W 9494  22.225   8.274  52.873
17571W        W 9495  27.206  16.740  52.862
17572W        W 9496  44.187   4.260  50.613
17573W        W 9497  41.183  28.750  52.409
17574W        W 9498  46.212  33.196  51.494
17575W        W 9499   8.282  39.731  53.344
17576W        W 9500  39.201   9.779  50.161
17577W        W 9501  11.748  27.729  51.492
17578W        W 9502  42.705  46.190  52.889
17579W        W 9503  15.740  42.205  50.142
17580W        W 9504   4.783  45.705  51.531
17581W        W 9505   1.290  15.233  51.068
17582W        W 9506  24.252  35.725  51.966
17583W        W 9507  37.198   7.260  53.351
17584W        W 9508  45.183  46.193  50.121
17585W        W 9509  18.746   0.761  51.977
17586W        W 9510  28.727   3.272  51.972
17587W        W 9511   1.759   1.288  53.354
17588W        W 9512  31.223  36.205  53.793
17589W        W 9513  44.708  19.220  51.949
17590W        W 9514   6.756  26.247  51.499
17591W        W 9515  41.207  10.260  53.330
17592W        W 9516  24.739  34.717  49.688
17593W        W 9517   3.291  44.678  50.141
17594W        W 9518  13.773   9.755  50.615
17595W        W 9519  13.259  11.236  52.861
17596W        W 9520  36.721  30.207  53.813
17597W        W 9521  12.278  28.734  52.893
17598W        W 9522  32.722   2.783  52.447
17599W        W 9523  46.703  18.763  49.692
17600W        W 9524  41.693  46.703  53.322
17601W        W 9525  44.680  19.727  52.435
17602W        W 9526  19.249  22.254  51.959
17603W        W 9527  27.716   8.254  50.122
17604W        W 9528   1.259  42.186  53.779
17605W        W 9529  28.232  42.196  52.882
17606W        W 9530  20.744  37.189  51.948
17607W        W 9531   2.786  46.698  52.859
17608W        W 9532  18.263  45.706  52.876
17609W        W 9533  16.738  47.718  51.971
17610W        W 9534   4.773  34.711  52.867
17611W        W 9535  41.730   9.276  52.438
17612W        W 9536  44.198  16.247  53.327
17613W        W 9537  21.762  10.776  50.149
17614W        W 9538   8.761  30.704  52.866
17615W        W 9539   1.753  34.195  52.903
17616W        W 9540  29.722  21.738  50.610
17617W        W 9541  28.721  22.718  51.063
17618W        W 9542  41.709  36.718  49.708
17619W        W 9543  40.191  42.198  52.405
17620W        W 9544  14.768  24.747  49.695
17621W        W 9545   3.248  19.264  50.150
17622W        W 9546  39.728  31.747  53.356
17623W        W 9547  43.179  43.684  53.336
17624W        W 9548  24.759  17.261  50.125
17625W        W 9549  13.743  22.240  53.327
17626W        W 9550  43.714  35.241  51.057
17627W        W 9551  20.736  33.230  51.041
17628W        W 9552  24.246  38.709  53.805
17629W        W 9553   9.774  27.752  51.049
17630W        W 9554  26.726  48.191  53.810
17631W        W 9555  33.723  42.211  53.351
17632W        W 9556  15.757   8.775  53.785
17633W        W 9557  43.679  47.673  52.433
17634W        W 9558  24.724  12.251  52.403
17635W        W 9559  29.211  28.708  52.893
17636W        W 9560  37.728  43.194  51.060
17637W        W 9561  10.277  47.220  53.790
17638W        W 9562  14.736   8.250  51.043
17639W        W 9563  36.719  21.757  51.076
17640W        W 9564   4.275  35.721  53.337
17641W        W 9565  11.273   7.240  49.666
17642W        W 9566  11.750  31.700  52.883
17643W        W 9567  32.222   5.742  53.777
17644W        W 9568   4.764  14.258  52.407
17645W        W 9569  13.756   6.273  53.358
17646W        W 9570  29.722   9.245  50.132
17647W        W 9571   3.289  39.199  53.797
17648W        W 9572  10.733  25.742  52.886
17649W        W 9573  16.735  11.255  50.578
17650W        W 9574  35.231  43.181  51.073
17651W        W 9575   5.289  18.734  52.871
17652W        W 9576  25.716   6.784  51.079
17653W        W 9577   8.240   5.286  51.962
17654W        W 9578  16.759   7.756  51.498
17655W        W 9579  14.261  12.772  53.344
17656W        W 9580   1.280   5.275  51.980
17657W        W 9581  27.749  20.245  53.790
17658W        W 9582  28.715   8.760  50.602
17659W        W 9583  45.690  15.738  52.876
17660W        W 9584  30.728  31.740  52.900
17661W        W 9585  22.245  29.234  51.037
17662W        W 9586  10.265  26.755  53.778
17663W        W 9587  28.228  20.264  52.444
17664W        W 9588  31.207  32.728  49.700
17665W        W 9589  17.736  15.772  52.899
17666W        W 9590  22.239   2.265  52.884
17667W        W 9591  12.756  16.272  53.809
17668W        W 9592  18.722  28.711  53.317
17669W        W 9593   7.274   1.790  49.706
17670W        W 9594   3.793   0.287  53.344
17671W        W 9595  19.219  31.721  53.341
17672W        W 9596  32.740  15.734  52.885
17673W        W 9597   3.753  31.740  50.586
17674W        W 9598  12.261   6.764  50.165
17675W        W 9599  22.226  42.213  53.340
17676W        W 9600   4.777  36.713  51.513
17677W        W 9601  41.714  22.220  51.985
17678W        W 9602  47.684  43.196  50.618
17679W        W 9603  22.217   6.770  52.412
17680W        W 9604  42.721  26.213  53.808
17681W        W 9605  34.241  13.254  51.065
17682W        W 9606  47.691  13.773  53.796
17683W        W 9607  41.213   5.785  53.360
17684W        W 9608  26.249  36.191  53.792
17685W        W 9609  47.192  17.256  50.621
17686W        W 9610  33.227   3.254  53.792
17687W        W 9611  27.750   6.247  52.442
17688W        W 9612  27.736  21.725  51.523
17689W        W 9613  34.695   9.247  53.341
17690W        W 9614  12.274  28.734  50.622
17691W        W 9615  41.700  10.740  53.812
17692W        W 9616  20.241   8.781  49.704
17693W        W 9617  37.200   6.743  51.969
17694W        W 9618  31.242  41.190  51.037
17695W        W 9619   3.252  46.176  51.947
17696W        W 9620  30.705  38.725  50.597
17697W        W 9621  31.234   5.761  53.353
17698W        W 9622  42.230   3.257  51.983
17699W        W 9623  17.257  23.254  51.518
17700W        W 9624  45.177   6.757  51.965
17701W        W 9625  29.750  20.229  50.134
17702W        W 9626  34.737  18.251  49.670
17703W        W 9627  37.203   5.774  51.042
17704W        W 9628  36.717  25.228  51.520
17705W        W 9629  40.220  28.229  52.898
17706W        W 9630  20.241  48.175  51.954
17707W        W 9631  47.193  13.260  53.319
17708W        W 9632   9.277  29.251  52.879
17709W        W 9633  31.243  39.689  53.797
17710W        W 9634  12.733  27.216  51.057
17711W        W 9635  27.238  10.250  49.691
17712W        W 9636  41.209  11.749  51.049
17713W        W 9637  27.743  41.230  52.421
17714W        W 9638  20.759  43.682  52.424
17715W        W 9639  39.218  48.201  51.501
17716W        W 9640  40.204  25.252  49.707
17717W        W 9641   8.771  25.744  50.138
17718W        W 9642  41.186  23.244  53.355
17719W        W 9643  23.224  18.238  53.347
17720W        W 9644  37.727   1.773  49.683
17721W        W 9645  20.725  44.192  53.337
17722W        W 9646  15.240  10.754  53.359
17723W        W 9647   3.293  24.240  49.689
17724W        W 9648  29.716  27.722  50.604
17725W        W 9649   8.771  42.213  50.164
17726W        W 9650  12.235   5.783  49.684
17727W        W 9651   3.248   4.290  51.066
17728W        W 9652  23.733  32.233  53.360
17729W        W 9653  36.212  18.731  53.333
17730W        W 9654  38.713  31.699  50.122
17731W        W 9655  13.730  35.193  50.599
17732W        W 9656  22.716  29.711  50.622
17733W        W 9657  14.261  43.215  52.426
17734W        W 9658  25.718  14.237  50.143
17735W        W 9659  28.252  15.248  53.329
17736W        W 9660  42.701  13.252  51.525
17737W        W 9661  20.734  31.702  52.897
17738W        W 9662  32.705  11.760  51.040
17739W        W 9663  12.748  16.737  52.882
17740W        W 9664  38.736  26.746  51.053
17741W        W 9665  30.222  19.735  53.338
17742W        W 9666   3.753   8.240  51.057
17743W        W 9667  44.687  16.227  50.622
17744W        W 9668  42.181  45.694  52.448
17745W        W 9669  31.723  34.205  49.696
17746W        W 9670  44.198  19.260  49.668
17747W        W 9671  46.675  11.762  49.697
17748W        W 9672  25.716  32.716  52.896
17749W        W 9673  20.218  35.219  50.160
17750W        W 9674   4.262  42.230  53.788
17751W        W 9675  10.243  46.706  53.807
17752W        W 9676   3.284  30.702  52.443
17753W        W 9677  19.262  23.727  52.861
17754W        W 9678  10.732  37.222  49.708
17755W        W 9679  21.735  21.254  50.587
17756W        W 9680   9.267   1.764  51.962
17757W        W 9681   7.282  22.746  50.144
17758W        W 9682  24.219  14.736  53.347
17759W        W 9683  38.708  31.244  52.443
17760W        W 9684  30.706  39.209  51.523
17761W        W 9685   3.249  22.725  50.132
17762W        W 9686  32.729  22.746  52.427
17763W        W 9687   8.745   9.243  52.901
17764W        W 9688   3.261  25.240  53.318
17765W        W 9689  16.250  19.233  50.146
17766W        W 9690  39.710  34.239  52.439
17767W        W 9691  35.220  31.710  53.772
17768W        W 9692  39.228   5.243  49.691
17769W        W 9693  15.770  40.731  52.404
17770W        W 9694  37.725  17.266  51.065
17771W        W 9695   3.256   8.754  49.680
17772W        W 9696  10.747  37.194  51.979
17773W        W 9697   0.777  34.735  52.435
17774W        W 9698  42.718  25.727  51.952
17775W        W 9699  40.194  20.252  51.055
17776W        W 9700  45.224  45.177  52.432
17777W        W 9701  30.742  22.747  51.511
17778W        W 9702  47.708  46.691  51.977
17779W        W 9703  13.732   7.751  53.325
17780W        W 9704   7.766   8.248  52.439
17781W        W 9705   5.291  47.213  49.672
17782W        W 9706  18.724  48.188  50.584
17783W        W 9707  16.225  17.760  53.794
17784W        W 9708  28.203  15.262  51.499
17785W        W 9709  48.184  35.714  52.413
17786W        W 9710  44.698  30.205  53.335
17787W        W 9711   8.261  15.247  52.886
17788W        W 9712  36.207  21.216  50.134
17789W        W 9713   5.756  23.724  49.682
17790W        W 9714  24.256  13.776  52.425
17791W        W 9715  36.697  11.773  51.980
17792W        W 9716  23.737  43.206  51.535
17793W        W 9717  31.238  12.257  51.527
17794W        W 9718  30.241  21.722  52.878
17795W        W 9719  32.234  20.226  52.887
17796W        W 9720   0.755   7.745  51.971
17797W        W 9721  32.234  20.229  49.699
17798W        W 9722  30.226   2.251  53.352
17799W        W 9723   0.269  29.236  52.440
17800W        W 9724   9.248  25.214  51.493
17801W        W 9725   6.245  10.781  50.129
17802W        W 9726  42.713  39.726  53.786
17803W        W 9727  38.198  14.768  51.071
17804W        W 9728   3.267   9.736  52.875
17805W        W 9729   4.760  33.701  53.329
17806W        W 9730  27.741   3.762  50.142
17807W        W 9731   1.298  39.199  49.671
17808W        W 9732  47.671  11.261  51.962
17809W        W 9733   1.759  11.734  49.697
17810W        W 9734  23.260  15.238  50.126
17811W        W 9735  11.271  14.255  50.612
17812W        W 9736  24.717  33.722  52.413
17813W        W 9737  26.248  31.732  51.042
17814W        W 9738  42.699  21.755  50.599
17815W        W 9739  13.761  45.216  50.615
17816W        W 9740  47.703   3.782  51.971
17817W        W 9741  44.706  29.713  51.988
17818W        W 9742   0.287  43.194  51.971
17819W        W 9743  47.687   8.761  49.674
17820W        W 9744   2.752  22.727  52.905
17821W        W 9745  39.198  38.700  52.866
17822W        W 9746   2.251   4.264  53.778
17823W        W 9747  36.709  12.276  51.959
17824W        W 9748   5.775   0.281  50.134
17825W        W 9749  35.735  13.237  52.447
17826W        W 9750   0.265  26.242  51.532
17827W        W 9751  25.214  20.726  49.697
17828W        W 9752  35.693  20.746  52.421
17829W        W 9753  43.205   9.257  53.785
17830W        W 9754  39.728  36.710  53.356
17831W        W 9755  26.726  24.248  49.675
17832W        W 9756  15.730   5.777  49.670
17833W        W 9757  17.736  35.201  51.034
17834W        W 9758   7.764  45.215  51.950
17835W        W 9759  32.197   0.795  50.152
17836W        W 9760  40.222   7.769  51.037
17837W        W 9761  19.730  32.215  53.353
17838W        W 9762  46.223  36.690  52.898
17839W        W 9763  38.726  31.205  51.983
17840W        W 9764  41.196  21.747  50.140
17841W        W 9765  21.259  42.207  51.954
17842W        W 9766  40.724  36.713  49.693
17843W        W 9767  43.693   2.272  50.161
17844W        W 9768   8.754  15.253  51.982
17845W        W 9769  40.733  19.246  51.059
17846W        W 9770  12.776  46.180  53.320
17847W        W 9771  24.752  10.238  51.981
17848W        W 9772  16.738   1.765  53.787
17849W        W 9773  44.220  26.213  53.806
17850W        W 9774  44.185  12.763  50.142
17851W        W 9775  18.257  33.737  52.406
17852W        W 9776  25.229  11.252  51.949
17853W        W 9777  30.738  39.234  51.978
17854W        W 9778  29.709   1.253  50.134
17855W        W 9779  46.690  33.709  49.701
17856W        W 9780  10.277  19.263  49.703
17857W        W 9781  37.199   5.279  52.429
17858W        W 9782   0.798  32.731  51.041
17859W        W 9783  37.737  40.197  51.977
17860W        W 9784  25.730   7.781  51.070
17861W        W 9785  38.217  19.224  51.971
17862W        W 9786  31.217  12.239  52.880
17863W        W 9787  21.762  22.723  52.879
17864W        W 9788  46.687  36.228  49.699
17865W        W 9789  14.257  19.750  53.805
17866W        W 9790  24.754  39.191  50.165
17867W        W 9791  32.228  27.754  52.862
17868W        W 9792  35.219  25.757  50.601
17869W        W 9793  21.732  11.762  50.611
17870W        W 9794  44.678  31.248  51.493
17871W        W 9795  32.232   4.779  51.973
17872W        W 9796  35.230  32.207  51.494
17873W        W 9797  17.750  29.734  50.584
17874W        W 9798  41.222  26.247  51.531
17875W        W 9799  24.710  17.266  50.602
17876W        W 9800  30.203   5.255  50.151
17877W        W 9801  37.701  41.217  51.510
17878W        W 9802  15.743  22.748  51.491
17879W        W 9803  14.759  20.220  51.515
17880W        W 9804   2.282  43.711  50.145
17881W        W 9805   1.281  41.227  51.043
17882W        W 9806  17.764  21.227  50.137
17883W        W 9807  33.226  29.203  50.598
17884W        W 9808  26.247  38.726  52.889
17885W        W 9809  48.191  37.230  49.665
17886W        W 9810  27.254  43.716  51.985
17887W        W 9811  36.696  16.726  53.801
17888W        W 9812  31.747   9.251  50.126
17889W        W 9813   5.254  21.734  50.121
17890W        W 9814  14.763  18.222  52.893
17891W        W 9815   6.288  11.770  49.704
17892W        W 9816  45.222  29.234  51.057
17893W        W 9817  22.263  38.690  52.892
17894W        W 9818  20.764  41.223  51.039
17895W        W 9819  10.268  20.742  51.067
17896W        W 9820  39.234  44.705  51.983
17897W        W 9821  42.722  40.203  53.350
17898W        W 9822   4.770  33.233  52.866
17899W        W 9823  44.689  20.735  53.353
17900W        W 9824   4.758  12.767  52.863
17901W        W 9825  13.244   9.772  53.778
17902W        W 9826  14.262   9.750  51.532
17903W        W 9827   7.743  47.706  52.891
17904W        W 9828  16.260   0.768  53.317
17905W        W 9829  18.759  43.684  51.074
17906W        W 9830  31.738   9.734  50.585
17907W        W 9831  42.183  12.235  50.121
17908W        W 9832  31.717  24.737  51.956
17909W        W 9833  44.199  40.721  53.339
17910W        W 9834  33.233   7.762  53.322
17911W        W 9835  35.227   5.759  51.984
17912W        W 9836  20.226  43.683  53.776
17913W        W 9837  44.724  32.206  50.131
17914W        W 9838   1.277  45.218  52.429
17915W        W 9839  27.722   2.251  52.422
17916W        W 9840  21.219  38.198  49.706
17917W        W 9841  25.247  28.729  51.506
17918W        W 9842  34.725   1.260  53.336
17919W        W 9843  47.215  48.192  51.042
17920W        W 9844  22.240  11.269  50.142
17921W        W 9845   5.770  19.725  53.348
17922W        W 9846  44.189  17.244  51.037
17923W        W 9847  39.223  13.241  51.535
17924W        W 9848  26.243  40.725  49.665
17925W        W 9849  41.727  29.244  51.959
17926W        W 9850   2.795   6.247  52.432
17927W        W 9851  10.261  34.209  53.816
17928W        W 9852  43.698   2.749  51.954
17929W        W 9853   7.759  26.228  51.037
17930W        W 9854  11.739  26.754  51.523
17931W        W 9855  44.188  19.249  51.975
17932W        W 9856  10.251  20.226  52.900
17933W        W 9857  33.707   9.775  51.946
17934W        W 9858  28.719   6.275  50.583
17935W        W 9859  11.736  35.202  53.334
17936W        W 9860  46.682  42.229  51.962
17937W        W 9861  30.207   7.249  51.970
17938W        W 9862  34.228   5.270  53.779
17939W        W 9863   4.253  14.252  50.162
17940W        W 9864  35.215  25.219  53.322
17941W        W 9865  30.734  44.181  49.704
17942W        W 9866  21.715  25.234  52.894
17943W        W 9867   7.284  33.238  50.621
17944W        W 9868   8.279  42.710  51.492
17945W        W 9869  27.213  15.753  53.803
17946W        W 9870  37.711  10.278  52.406
17947W        W 9871  39.201  38.215  51.967
17948W        W 9872  45.689  47.182  52.439
17949W        W 9873   5.751   8.255  50.598
17950W        W 9874   8.779  27.752  53.323
17951W        W 9875  10.751   7.763  52.412
17952W        W 9876   1.248  41.183  52.883
17953W        W 9877  23.240   2.283  49.686
17954W        W 9878  12.753  23.213  53.347
17955W        W 9879  43.226   7.769  51.529
17956W        W 9880  45.715  18.739  50.612
17957W        W 9881  22.252  17.247  51.951
17958W        W 9882  39.718  25.727  49.709
17959W        W 9883  12.776  28.728  50.163
17960W        W 9884  13.237  16.240  52.424
17961W        W 9885  16.768   4.271  51.528
17962W        W 9886   2.262  18.261  53.345
17963W        W 9887  10.764  13.265  53.779
17964W        W 9888  27.735  30.208  53.810
17965W        W 9889  10.769  30.209  53.339
17966W        W 9890   0.771  32.715  53.815
17967W        W 9891  35.707  31.211  51.965
17968W        W 9892  24.717  29.725  51.968
17969W        W 9893  17.754   2.253  52.436
17970W        W 9894  35.720   4.243  53.797
17971W        W 9895  36.722  10.283  51.521
17972W        W 9896  30.742   9.253  51.498
17973W        W 9897  28.706   6.772  51.504
17974W        W 9898  33.703   7.251  51.060
17975W        W 9899   8.772  29.733  50.165
17976W        W 9900  34.721   1.783  49.686
17977W        W 9901  27.236   6.278  52.436
17978W        W 9902   8.772  36.205  53.332
17979W        W 9903  43.699  31.201  50.578
17980W        W 9904  39.212  34.236  52.425
17981W        W 9905   6.784  32.703  53.799
17982W        W 9906  25.250  27.236  51.958
17983W        W 9907  16.254  24.236  53.352
17984W        W 9908  14.727   2.267  49.696
17985W        W 9909  20.236   7.776  50.584
17986W        W 9910  45.712  42.690  53.784
17987W        W 9911  40.716  42.229  53.791
17988W        W 9912   5.278  31.740  49.675
17989W        W 9913  15.272  26.743  49.669
17990W        W 9914   7.260  37.206  51.053
17991W        W 9915  26.740  10.249  53.811
17992W        W 9916  25.216  39.723  49.687
17993W        W 9917  30.709  29.750  49.673
17994W        W 9918  39.724   4.285  51.989
17995W        W 9919  45.224  46.174  51.514
17996W        W 9920  27.218  34.209  49.691
17997W        W 9921  43.721   7.783  53.795
17998W        W 9922  43.225  20.750  53.344
17999W        W 9923  34.224  43.203  51.974
18000W        W 9924  13.749  44.723  50.583
18001W        W 9925  27.252  29.716  51.981
18002W        W 9926  37.693  41.687  49.705
18003W        W 9927  26.722  23.739  50.578
18004W        W 9928  48.189  44.691  51.515
18005W        W 9929   1.752  46.195  50.616
18006W        W 9930  46.207  43.228  51.533
18007W        W 9931  15.263   9.257  53.776
18008W        W 9932  14.232  20.740  49.684
18009W        W 9933  40.691  44.213  52.902
18010W        W 9934   1.285  20.752  50.160
18011W        W 9935  32.244  38.232  51.036
18012W        W 9936  47.199  36.698  50.141
18013W        W 9937  33.732   2.247  53.342
18014W        W 9938  11.763  21.752  51.491
18015W        W 9939  28.739   0.290  52.894
18016W        W 9940   0.284  14.753  51.494
18017W        W 9941  47.191  41.717  52.900
18018W        W 9942   7.247  45.697  50.603
18019W        W 9943  46.691  14.761  52.427
18020W        W 9944  37.730  19.765  52.409
18021W        W 9945   1.761  41.216  51.963
18022W        W 9946  39.208  35.736  53.816
18023W        W 9947  45.713  34.708  51.960
18024W        W 9948  10.763  13.275  51.071
18025W        W 9949  40.699  30.226  51.961
18026W        W 9950  42.725  45.201  52.891
18027W        W 9951  10.245  23.748  52.863
18028W        W 9952   5.753  43.684  51.525
18029W        W 9953  13.254  17.258  53.792
18030W        W 9954  36.202  34.731  51.509
18031W        W 9955  10.748  41.728  50.127
18032W        W 9956  37.690   8.742  52.905
18033W        W 9957   2.752  30.233  50.593
18034W        W 9958  15.268  43.208  51.494
18035W        W 9959  40.216  28.206  50.125
18036W        W 9960  10.279  10.778  51.956
18037W        W 9961  16.234  36.218  50.600
18038W        W 9962  36.201  27.237  50.163
18039W        W 9963  19.756  10.775  50.140
18040W        W 9964  15.267  19.254  51.962
18041W        W 9965   0.773  29.714  49.705
18042W        W 9966  13.266  24.218  53.342
18043W        W 9967  28.748  46.212  50.160
18044W        W 9968  44.210  14.741  53.346
18045W        W 9969  46.223  20.731  51.034
18046W        W 9970  46.182   6.740  53.337
18047W        W 9971  19.759  42.186  50.593
18048W        W 9972   1.295  35.215  52.409
18049W        W 9973  43.218  44.213  53.784
18050W        W 9974  39.710   3.784  51.064
18051W        W 9975  29.215  27.747  53.806
18052W        W 9976  34.210  10.261  50.131
18053W        W 9977  40.193  44.220  50.581
18054W        W 9978  14.733  13.761  52.438
18055W        W 9979   9.737   1.267  53.356
18056W        W 9980  30.250  29.203  50.134
18057W        W 9981  26.739   0.789  51.962
18058W        W 9982  35.231  28.744  51.045
18059W        W 9983  18.231   1.778  53.338
18060W        W 9984  15.744   5.757  51.535
18061W        W 9985  15.238  38.720  53.327
18062W        W 9986  43.691  36.233  52.900
18063W        W 9987  38.722  28.250  50.128
18064W        W 9988  48.216  26.223  49.709
18065W        W 9989  44.179  11.743  51.073
18066W        W 9990  33.209  40.219  51.512
18067W        W 9991   1.274  29.723  52.441
18068W        W 9992  25.738  25.216  50.595
18069W        W 9993  14.234  39.197  50.595
18070W        W 9994  22.729   3.793  52.866
18071W        W 9995  35.727  33.699  51.509
18072W        W 9996  23.240  25.220  51.966
18073W        W 9997  46.187   1.779  51.953
18074W        W 9998  42.227  29.702  51.517
18075W        W 9999  31.734  32.243  51.952
18076W        W10000  12.763  14.249  51.056
18077W        W10001   0.277   5.265  52.879
18078W        W10002   8.265  23.726  52.894
18079W        W10003  41.719  27.253  51.966
18080W        W10004   0.294  17.223  51.492
18081W        W10005  23.757   3.781  51.070
18082W        W10006   9.763  29.743  50.590
18083W        W10007  26.220  43.699  51.495
18084W        W10008   4.774  32.242  52.904
18085W        W10009   6.288  32.745  52.874
18086W        W10010   1.773  15.764  51.525
18087W        W10011  10.739  34.211  52.425
18088W        W10012   4.258  41.230  50.127
18089W        W10013  40.213  36.217  49.676
18090W        W10014   3.283  14.233  51.067
18091W        W10015  44.220  20.762  51.979
18092W        W10016  42.690   0.258  51.991
18093W        W10017  44.225  26.728  52.432
18094W        W10018  16.760  25.709  51.042
18095W        W10019  22.737  36.207  50.143
18096W        W10020   9.757  12.234  50.604
18097W        W10021   6.786   0.268  52.877
18098W        W10022  16.757   4.763  49.675
18099W        W10023  26.724  35.729  51.493
18100W        W10024  16.770  24.216  49.703
18101W        W10025  28.705  10.274  52.898
18102W        W10026  34.194  35.193  52.864
18103W        W10027  44.688  48.210  53.350
18104W        W10028  47.675  43.185  52.867
18105W        W10029  35.200  27.705  51.985
18106W        W10030  30.739  11.270  53.777
18107W        W10031  43.700  46.706  50.578
18108W        W10032  32.198  22.216  53.773
18109W        W10033  26.239  41.195  52.863
18110W        W10034  47.185  30.224  50.160
18111W        W10035  25.751  16.232  52.867
18112W        W10036   4.258   5.246  51.963
18113W        W10037  21.241  35.225  53.342
18114W        W10038  21.240  10.758  50.621
18115W        W10039  41.722   3.288  52.418
18116W        W10040  31.226   7.757  53.354
18117W        W10041  36.193   5.750  53.798
18118W        W10042  28.250   6.762  52.869
18119W        W10043  10.753  16.766  51.966
18120W        W10044  28.237  33.703  49.708
18121W        W10045  25.715   1.759  51.955
18122W        W10046   2.747   7.746  52.432
18123W        W10047  16.746  35.212  52.419
18124W        W10048  32.743  15.265  51.499
18125W        W10049   8.776  31.206  52.871
18126W        W10050  17.744   8.748  52.403
18127W        W10051  18.721  29.726  49.688
18128W        W10052  13.739  41.211  53.353
18129W        W10053  28.738   2.292  51.066
18130W        W10054  10.760   1.249  51.953
18131W        W10055  20.749  32.241  50.161
18132W        W10056   8.243  15.255  53.332
18133W        W10057  32.201  33.220  52.447
18134W        W10058  20.248  22.740  50.131
18135W        W10059  18.756   1.297  52.441
18136W        W10060  29.229  45.220  50.585
18137W        W10061  48.177  42.724  51.054
18138W        W10062  18.728  38.210  51.071
18139W        W10063  10.762  26.218  51.065
18140W        W10064   4.744  11.731  53.794
18141W        W10065  16.742  22.221  52.427
18142W        W10066  24.720   2.770  52.425
18143W        W10067  34.196  41.223  49.669
18144W        W10068  11.757   0.278  50.596
18145W        W10069  47.182   9.747  50.596
18146W        W10070  11.264  11.747  52.881
18147W        W10071  36.733   4.775  50.596
18148W        W10072  43.187   2.295  49.700
18149W        W10073  27.219   0.756  49.670
18150W        W10074   8.744  12.736  53.336
18151W        W10075  31.702  44.213  53.792
18152W        W10076  37.734  12.243  53.808
18153W        W10077  45.716  11.240  51.947
18154W        W10078  14.255  29.708  51.500
18155W        W10079  18.236   3.770  50.164
18156W        W10080  39.210   3.750  52.866
18157W        W10081   9.274  33.698  52.859
18158W        W10082   3.273  23.261  50.620
18159W        W10083  37.720  29.227  51.057
18160W        W10084  25.724  18.764  52.413
18161W        W10085  39.719   1.276  53.778
18162W        W10086  26.244  14.760  53.790
18163W        W10087  29.710  18.760  50.592
18164W        W10088  11.255  39.707  50.603
18165W        W10089  21.755  21.238  52.869
18166W        W10090  39.221   8.752  52.882
18167W        W10091  34.702   4.761  51.953
18168W        W10092   3.766   7.776  49.676
18169W        W10093  33.243  32.215  52.878
18170W        W10094  22.744  42.706  51.521
18171W        W10095   0.274   0.255  52.424
18172W        W10096  29.702  12.773  50.166
18173W        W10097  24.714   7.272  53.787
18174W        W10098  44.717   2.280  52.435
18175W        W10099  37.219  14.258  53.337
18176W        W10100   2.781  41.724  50.147
18177W        W10101  11.741  40.190  51.950
18178W        W10102  41.687  33.697  51.975
18179W        W10103  40.708   1.785  49.685
18180W        W10104  24.231   7.275  53.807
18181W        W10105  34.708  13.256  53.799
18182W        W10106  12.253   2.750  52.403
18183W        W10107  14.774  28.747  52.865
18184W        W10108  16.237   9.255  51.522
18185W        W10109  34.240  38.719  51.965
18186W        W10110   0.288  31.200  53.801
18187W        W10111  18.266  38.203  50.159
18188W        W10112   8.762  20.717  52.433
18189W        W10113  46.690  11.232  53.788
18190W        W10114  10.755   4.272  51.074
18191W        W10115   7.741  35.204  52.427
18192W        W10116  10.261   3.789  53.805
18193W        W10117   8.770  37.235  53.781
18194W        W10118  28.736  23.748  53.360
18195W        W10119  42.202  38.215  50.591
18196W        W10120  18.739  37.692  52.890
18197W        W10121  37.219   3.778  51.050
18198W        W10122  14.255  37.690  53.356
18199W        W10123   6.753  44.185  53.355
18200W        W10124   3.269  20.730  51.040
18201W        W10125  12.252  20.221  50.602
18202W        W10126  23.235  31.248  51.975
18203W        W10127  12.274  29.206  51.499
18204W        W10128  32.210  10.255  51.051
18205W        W10129  10.741  20.239  52.900
18206W        W10130  41.197  31.727  52.441
18207W        W10131   2.786   7.782  51.497
18208W        W10132  11.734  34.230  49.696
18209W        W10133  15.748  44.210  49.666
18210W        W10134   9.269  41.726  50.585
18211W        W10135  43.680  47.698  50.585
18212W        W10136  47.178  14.262  50.623
18213W        W10137  30.242  22.222  51.502
18214W        W10138  20.250  41.200  50.610
18215W        W10139  46.709  38.206  51.070
18216W        W10140   2.748  17.756  52.448
18217W        W10141  44.676  16.262  51.987
18218W        W10142   4.279  40.201  52.443
18219W        W10143  19.766  26.721  51.078
18220W        W10144  26.253  28.226  52.875
18221W        W10145   5.769  36.197  50.148
18222W        W10146  31.216  19.753  51.991
18223W        W10147  32.240  34.231  51.491
18224W        W10148  39.710   4.773  52.440
18225W        W10149  22.223  32.740  51.066
18226W        W10150  46.700  39.699  53.779
18227W        W10151  31.206  18.738  51.055
18228W        W10152  32.723   0.253  51.042
18229W        W10153  42.222  17.737  51.532
18230W        W10154  13.737  26.727  53.344
18231W        W10155   2.750  30.705  52.435
18232W        W10156   1.249  14.733  49.697
18233W        W10157  44.186  27.207  50.150
18234W        W10158  11.270   4.260  51.951
18235W        W10159   4.246  30.202  52.863
18236W        W10160  26.243   5.775  51.040
18237W        W10161   6.274  22.253  52.863
18238W        W10162   6.756  16.228  49.701
18239W        W10163   3.764  36.240  53.810
18240W        W10164   9.280  29.706  50.153
18241W        W10165   3.269  35.241  50.139
18242W        W10166  39.226  22.248  51.064
18243W        W10167  37.730  41.221  53.804
18244W        W10168  20.237  18.750  53.345
18245W        W10169  13.251  19.232  51.520
18246W        W10170  29.739   4.280  53.355
18247W        W10171  43.727   2.768  51.532
18248W        W10172   7.783  11.232  51.075
18249W        W10173  44.692  30.747  53.806
18250W        W10174  44.723  14.753  51.068
18251W        W10175  14.739  35.218  53.779
18252W        W10176  40.713  29.714  50.159
18253W        W10177  14.247  38.705  50.145
18254W        W10178  32.228  46.679  51.039
18255W        W10179  27.253  37.735  50.158
18256W        W10180  16.759  42.684  50.154
18257W        W10181  47.720  37.718  53.343
18258W        W10182  23.758   6.280  53.323
18259W        W10183  40.225   1.289  50.612
18260W        W10184  19.760  24.240  52.419
18261W        W10185  25.757  31.237  51.961
18262W        W10186  15.264  40.217  51.060
18263W        W10187  30.710  19.252  53.790
18264W        W10188  39.704  13.736  52.860
18265W        W10189  19.724  15.242  51.529
18266W        W10190  42.201   6.773  53.325
18267W        W10191  15.730  19.727  50.611
18268W        W10192  41.717  47.219  53.805
18269W        W10193  35.205   7.765  52.885
18270W        W10194  37.222  36.218  52.871
18271W        W10195   7.244  30.225  52.883
18272W        W10196  29.726  29.723  51.067
18273W        W10197  18.228  24.745  50.163
18274W        W10198  22.729  36.708  50.155
18275W        W10199  47.677  27.715  52.881
18276W        W10200  11.277  21.746  53.773
18277W        W10201  22.741  29.230  51.041
18278W        W10202  48.182  28.226  52.437
18279W        W10203  41.182  39.690  53.358
18280W        W10204   5.759  41.692  49.694
18281W        W10205   4.254  44.688  52.426
18282W        W10206  16.240  22.749  52.422
18283W        W10207  20.248  27.212  50.156
18284W        W10208   5.284  27.734  53.340
18285W        W10209  22.219  35.708  51.956
18286W        W10210  41.725   2.782  49.702
18287W        W10211   0.781  33.208  53.341
18288W        W10212  43.681  42.215  51.493
18289W        W10213  37.737  10.769  49.683
18290W        W10214  19.744  21.226  49.692
18291W        W10215  16.233  17.233  53.316
18292W        W10216  29.211  22.238  51.988
18293W        W10217   7.740  37.698  51.058
18294W        W10218   1.278   7.755  49.684
18295W        W10219  37.701  13.248  52.412
18296W        W10220  27.711  48.215  49.700
18297W        W10221  35.204  44.725  49.708
18298W        W10222  23.218  48.214  49.696
18299W        W10223   7.265  35.213  50.130
18300W        W10224  23.732  28.248  49.701
18301W        W10225  16.232  47.675  52.445
18302W        W10226  46.174  13.750  52.405
18303W        W10227   1.747  22.232  50.610
18304W        W10228  19.237   3.250  51.970
18305W        W10229  11.277  25.729  50.594
18306W        W10230  21.732  44.222  50.597
18307W        W10231  29.707   8.785  50.600
18308W        W10232  22.229  19.755  53.808
18309W        W10233   9.783  12.760  53.358
18310W        W10234   5.258   7.741  51.057
18311W        W10235  46.200   3.271  51.523
18312W        W10236  25.719  41.729  49.685
18313W        W10237  19.241   5.278  51.991
18314W        W10238  21.222  18.761  51.065
18315W        W10239  37.214  24.258  50.123
18316W        W10240  18.737  10.272  52.435
18317W        W10241  25.718  46.715  51.529
18318W        W10242  31.733  19.255  50.620
18319W        W10243  32.697  16.763  52.891
18320W        W10244  45.715   9.766  51.528
18321W        W10245  35.720  26.719  51.074
18322W        W10246  48.171  41.222  51.982
18323W        W10247  19.718  43.196  53.329
18324W        W10248  25.247  36.692  51.062
18325W        W10249  19.764  24.712  52.875
18326W        W10250  26.208  22.757  51.982
18327W        W10251  12.253  11.238  51.499
18328W        W10252  22.724   5.768  50.601
18329W        W10253  32.236  16.766  51.960
18330W        W10254  34.702   5.271  50.595
18331W        W10255  14.764  22.761  50.580
18332W        W10256   4.244  30.242  51.073
18333W        W10257  34.726  28.752  53.361
18334W        W10258  26.729  14.733  53.776
18335W        W10259  43.724  28.752  52.862
18336W        W10260  11.777  43.202  49.670
18337W        W10261  34.734  37.714  52.430
18338W        W10262  36.714   8.278  51.067
18339W        W10263  12.242  22.226  51.492
18340W        W10264  31.716  44.694  50.580
18341W        W10265  46.188  18.230  52.426
18342W        W10266  39.692  46.695  53.799
18343W        W10267  14.750  45.704  51.962
18344W        W10268  44.188  39.713  52.412
18345W        W10269  37.703  11.765  50.599
18346W        W10270  39.715  25.741  51.512
18347W        W10271  12.261  30.214  50.621
18348W        W10272  16.757  35.214  51.071
18349W        W10273  23.752  15.271  51.063
18350W        W10274  21.760   2.282  52.421
18351W        W10275   6.250   9.239  52.878
18352W        W10276  35.229   4.760  51.529
18353W        W10277   9.749   4.790  51.979
18354W        W10278  33.211  39.208  51.964
18355W        W10279   3.750  16.258  52.431
18356W        W10280   4.747  35.691  53.815
18357W        W10281  48.203   5.790  53.325
18358W        W10282   5.781   7.784  53.798
18359W        W10283  26.730  39.695  50.134
18360W        W10284  46.687  41.693  50.588
18361W        W10285  46.196  18.752  51.499
18362W        W10286  20.226  40.684  51.984
18363W        W10287  22.762  20.764  52.426
18364W        W10288  15.260  38.230  49.692
18365W        W10289  39.711  29.208  50.143
18366W        W10290  27.725  11.238  50.621
18367W        W10291  47.686  32.246  53.782
18368W        W10292  32.734   1.292  51.061
18369W        W10293  46.697  38.221  50.146
18370W        W10294  28.230  23.251  51.963
18371W        W10295   7.745  46.176  53.352
18372W        W10296  36.201   2.785  52.417
18373W        W10297  26.214   2.284  51.972
18374W        W10298  14.745  46.703  53.330
18375W        W10299  23.747  38.735  51.949
18376W        W10300  47.176  27.723  52.888
18377W        W10301  44.190  43.682  52.877
18378W        W10302  32.706  43.194  52.869
18379W        W10303  36.719  20.742  52.863
18380W        W10304   4.291  19.263  49.667
18381W        W10305  10.778   1.769  51.958
18382W        W10306  20.730   8.756  49.692
18383W        W10307  31.208  37.230  53.335
18384W        W10308  14.256  24.216  53.790
18385W        W10309   4.247  29.242  51.505
18386W        W10310  20.256   5.255  50.166
18387W        W10311  27.719  34.227  50.577
18388W        W10312  31.213   9.283  52.877
18389W        W10313   5.263   8.270  53.790
18390W        W10314  37.728  31.703  53.790
18391W        W10315  39.217   9.737  51.970
18392W        W10316  40.224  34.742  51.072
18393W        W10317  24.244   1.775  50.602
18394W        W10318  42.182   7.264  51.956
18395W        W10319  19.264  16.227  49.674
18396W        W10320   8.241  23.722  51.073
18397W        W10321  20.760  41.190  51.964
18398W        W10322  26.729  10.254  51.503
18399W        W10323  23.757  46.214  51.510
18400W        W10324  24.754   3.254  51.532
18401W        W10325   4.775  47.176  52.409
18402W        W10326  22.739  44.721  52.430
18403W        W10327   4.768  26.246  49.698
18404W        W10328  46.186  41.216  53.329
18405W        W10329   0.754  11.738  51.950
18406W        W10330   2.248  17.266  51.049
18407W        W10331   6.250  40.193  51.966
18408W        W10332  44.702  33.243  51.962
18409W        W10333  18.260  36.220  51.971
18410W        W10334  26.719   9.754  51.966
18411W        W10335  20.729  42.717  53.801
18412W        W10336   0.282  39.715  53.783
18413W        W10337  45.181  17.261  50.148
18414W        W10338   7.771  28.740  53.316
18415W        W10339  33.224  23.753  52.884
18416W        W10340  23.212  43.189  49.683
18417W        W10341  42.721  10.773  50.160
18418W        W10342   9.735   6.780  52.875
18419W        W10343  44.696  33.729  50.593
18420W        W10344  12.737  33.729  53.817
18421W        W10345  29.743  34.236  52.423
18422W        W10346  27.723  27.753  52.420
18423W        W10347   1.279   6.242  53.342
18424W        W10348  19.222  17.735  49.672
18425W        W10349  14.743  47.697  50.160
18426W        W10350   4.742  26.256  51.056
18427W        W10351  17.250  31.734  51.054
18428W        W10352  20.256  22.749  51.072
18429W        W10353  39.698  13.275  49.704
18430W        W10354  28.235  32.212  50.614
18431W        W10355  32.214  22.243  53.319
18432W        W10356  47.680  19.738  50.143
18433W        W10357  13.742  18.750  52.430
18434W        W10358  42.699  11.246  51.078
18435W        W10359  24.758  47.212  51.957
18436W        W10360  12.257  19.230  52.418
18437W        W10361   1.774  15.233  51.502
18438W        W10362  11.747  44.712  50.144
18439W        W10363  29.728  20.762  50.613
18440W        W10364  35.714  12.234  51.073
18441W        W10365  25.245   0.794  51.956
18442W        W10366  36.194   7.242  53.813
18443W        W10367  25.237  29.718  53.334
18444W        W10368  29.213   2.778  49.681
18445W        W10369  15.772  26.719  53.349
18446W        W10370  25.740  37.724  52.877
18447W        W10371  20.247  39.720  51.054
18448W        W10372  17.762  39.707  52.873
18449W        W10373   0.268   8.251  49.704
18450W        W10374  39.215   5.785  53.813
18451W        W10375  38.716  23.231  50.620
18452W        W10376  27.712   2.283  50.587
18453W        W10377  27.708  14.751  50.592
18454W        W10378  44.721  22.755  50.617
18455W        W10379  23.749  17.728  49.691
18456W        W10380  17.769   2.769  50.149
18457W        W10381  25.239  41.183  52.407
18458W        W10382   1.790  31.243  52.407
18459W        W10383  13.278   7.771  53.816
18460W        W10384  25.745   8.755  49.676
18461W        W10385  43.684  39.207  50.579
18462W        W10386  13.246  26.717  52.445
18463W        W10387   1.268  15.227  53.334
18464W        W10388   0.270  16.764  51.516
18465W        W10389  11.779   2.286  51.516
18466W        W10390  32.741  40.689  53.340
18467W        W10391  20.763  47.712  50.123
18468W        W10392  29.751   6.775  52.898
18469W        W10393  33.729  20.744  50.137
18470W        W10394   9.257  12.238  50.615
18471W        W10395  36.726  48.203  52.884
18472W        W10396  27.739  48.203  51.513
18473W        W10397  13.770  45.200  51.989
18474W        W10398   6.780   9.278  51.495
18475W        W10399  22.757  37.693  49.695
18476W        W10400  23.736  13.762  51.056
18477W        W10401  47.208  20.239  51.054
18478W        W10402  45.705  13.752  51.506
18479W        W10403  36.219  32.721  50.601
18480W        W10404  13.740  27.728  51.067
18481W        W10405  46.207  46.174  50.613
18482W        W10406  18.760  12.242  50.131
18483W        W10407  11.279  16.260  49.706
18484W        W10408  34.715   2.748  50.139
18485W        W10409   6.263  39.711  53.351
18486W        W10410  14.250  21.250  53.814
18487W        W10411   1.291  22.246  53.317
18488W        W10412  36.732  17.739  52.436
18489W        W10413  20.253  31.716  53.337
18490W        W10414  27.251   2.758  53.347
18491W        W10415  39.232  12.268  49.689
18492W        W10416  21.223  38.217  52.414
18493W        W10417   5.742  31.700  50.134
18494W        W10418  33.703   9.767  52.403
18495W        W10419  19.744  45.694  51.505
18496W        W10420  43.698  28.226  53.351
18497W        W10421   5.778  30.749  52.884
18498W        W10422  19.756  28.739  52.895
18499W        W10423  27.223  40.704  51.964
18500W        W10424  47.191  11.237  50.617
18501W        W10425   9.276  24.241  50.161
18502W        W10426  38.225  43.197  51.038
18503W        W10427  20.253  20.765  50.594
18504W        W10428   1.295  40.204  51.948
18505W        W10429  33.740  45.211  51.505
18506W        W10430  22.222  44.204  49.702
18507W        W10431  42.210  34.740  51.989
18508W        W10432  23.250   7.752  52.433
18509W        W10433   9.742  48.176  51.985
18510W        W10434  17.228   8.284  51.510
18511W        W10435  33.221  36.693  50.579
18512W        W10436   9.256   7.783  50.156
18513W        W10437  14.257  34.728  51.529
18514W        W10438  35.235  10.780  50.125
18515W        W10439  10.777  11.261  49.679
18516W        W10440   3.780  16.251  51.050
18517W        W10441  36.717  23.716  53.778
18518W        W10442  21.761  26.745  53.801
18519W        W10443  18.753  39.193  52.897
18520W        W10444   9.750  25.730  52.416
18521W        W10445  15.742  10.278  53.322
18522W        W10446  12.744  29.231  49.690
18523W        W10447   2.259  38.199  49.700
18524W        W10448  14.760   3.263  53.341
18525W        W10449  22.242  34.693  51.959
18526W        W10450  14.270  22.728  52.433
18527W        W10451  40.725  21.732  51.522
18528W        W10452  14.756  27.731  49.684
18529W        W10453   0.299  41.705  53.788
18530W        W10454  44.681   5.273  53.350
18531W        W10455  21.228  14.727  52.903
18532W        W10456   7.767  35.699  52.412
18533W        W10457  12.743  32.720  49.664
18534W        W10458  23.228   3.290  51.511
18535W        W10459  23.715  13.755  49.680
18536W        W10460  33.695   4.274  53.344
18537W        W10461  35.727  33.204  52.902
18538W        W10462  11.244  21.264  50.578
18539W        W10463  47.199  13.256  52.883
18540W        W10464  18.758   3.247  49.674
18541W        W10465  33.222  37.204  52.445
18542W        W10466  28.211  38.715  52.886
18543W        W10467  37.231   0.276  52.432
18544W        W10468  10.739  39.230  50.596
18545W        W10469  47.215  22.227  52.870
18546W        W10470   5.747  33.212  51.512
18547W        W10471  17.259  10.747  53.799
18548W        W10472  48.193  30.202  51.040
18549W        W10473  43.215  29.247  50.138
18550W        W10474   6.262   5.790  51.979
18551W        W10475  11.743  17.247  51.967
18552W        W10476   9.281  33.204  51.034
18553W        W10477  21.222  22.241  51.057
18554W        W10478  32.230  45.700  50.154
18555W        W10479  24.257   2.757  50.603
18556W        W10480  15.249  12.251  52.882
18557W        W10481  37.707  44.688  52.888
18558W        W10482   0.274  14.771  52.870
18559W        W10483  45.177  16.744  52.417
18560W        W10484   3.773  33.740  53.327
18561W        W10485  18.753  37.225  52.404
18562W        W10486  40.702  45.207  50.591
18563W        W10487  39.707  31.235  51.532
18564W        W10488  26.706  24.739  53.327
18565W        W10489  21.223   2.753  51.519
18566W        W10490  17.269  45.200  51.977
18567W        W10491  14.732  29.215  50.602
18568W        W10492  32.227   8.247  51.950
18569W        W10493  16.262  39.226  53.350
18570W        W10494  33.695   2.754  51.946
18571W        W10495   2.774  16.237  50.142
18572W        W10496  40.697  14.259  51.075
18573W        W10497  41.186  15.740  52.894
18574W        W10498  14.731   6.763  52.878
18575W        W10499   4.789   9.247  51.965
18576W        W10500  13.265  47.685  52.886
18577W        W10501  33.703  35.210  53.783
18578W        W10502  23.716  26.720  50.616
18579W        W10503  18.245  31.722  53.335
18580W        W10504  12.257  37.734  51.981
18581W        W10505  24.216  22.745  53.815
18582W        W10506   9.239  22.226  49.688
18583W        W10507  25.739   4.759  52.881
18584W        W10508  21.748  31.232  50.615
18585W        W10509  21.252  19.719  51.974
18586W        W10510  20.733  18.746  52.871
18587W        W10511   4.753  31.713  50.149
18588W        W10512   4.751  31.228  52.869
18589W        W10513  10.255  19.735  51.049
18590W        W10514   9.734  13.265  53.806
18591W        W10515  36.224   8.276  53.815
18592W        W10516   6.742  23.261  49.671
18593W        W10517  31.203  10.752  51.510
18594W        W10518  38.202  25.242  53.326
18595W        W10519  46.701  14.743  50.621
18596W        W10520  47.714  38.699  51.069
18597W        W10521  11.275  43.701  49.676
18598W        W10522  22.246  16.740  53.803
18599W        W10523  17.239  10.282  53.786
18600W        W10524  13.765   2.760  51.072
18601W        W10525  24.719  27.255  50.128
18602W        W10526  43.691   2.761  52.433
18603W        W10527  13.752  21.216  50.121
18604W        W10528  12.239  24.712  51.973
18605W        W10529  26.742  14.763  50.143
18606W        W10530  16.234  34.696  51.076
18607W        W10531  13.738  18.766  51.034
18608W        W10532  18.236  22.251  52.440
18609W        W10533   2.764  16.259  52.898
18610W        W10534  20.723  18.264  50.134
18611W        W10535  28.725  21.721  51.069
18612W        W10536  37.721  31.248  52.869
18613W        W10537  14.740  12.740  52.437
18614W        W10538   8.246  20.728  51.973
18615W        W10539  44.684  18.245  53.343
18616W        W10540  10.248  36.712  49.675
18617W        W10541   5.776  21.722  51.043
18618W        W10542   8.785  23.731  51.966
18619W        W10543  25.735   4.782  52.439
18620W        W10544  13.745  41.691  50.596
18621W        W10545  19.240  48.186  51.956
18622W        W10546  32.235  31.234  52.412
18623W        W10547  13.244  17.751  51.524
18624W        W10548  32.715  46.186  51.505
18625W        W10549  46.699   2.267  51.946
18626W        W10550   7.767   9.782  53.784
18627W        W10551   4.252  34.698  53.798
18628W        W10552  44.703  26.211  49.697
18629W        W10553  16.265  13.254  53.789
18630W        W10554   3.765  15.763  51.947
18631W        W10555  22.261  36.221  49.667
18632W        W10556   5.271  40.233  51.526
18633W        W10557   4.749  10.732  53.798
18634W        W10558  10.262   6.260  53.785
18635W        W10559  47.711  35.199  50.583
18636W        W10560   1.264  38.214  50.588
18637W        W10561  26.240  30.733  50.618
18638W        W10562  30.247  16.272  50.608
18639W        W10563  15.229   0.755  50.577
18640W        W10564  11.257  12.737  50.602
18641W        W10565  16.241  45.194  53.797
18642W        W10566  43.208   8.759  50.154
18643W        W10567   2.787  28.711  52.429
18644W        W10568  47.701  45.220  51.957
18645W        W10569  19.266   1.774  51.972
18646W        W10570  35.217  44.184  49.680
18647W        W10571  17.770   8.777  52.902
18648W        W10572   8.259   4.266  51.045
18649W        W10573  41.683  32.231  51.530
18650W        W10574  14.747   2.277  52.447
18651W        W10575   7.749  44.719  49.692
18652W        W10576  19.759  13.766  53.808
18653W        W10577  23.242  22.749  51.079
18654W        W10578  18.224   5.278  51.496
18655W        W10579  18.242  35.718  53.808
18656W        W10580   6.254  32.235  51.964
18657W        W10581  33.230  14.235  51.974
18658W        W10582  13.236  12.263  52.419
18659W        W10583  28.217  30.747  51.525
18660W        W10584  32.714  13.753  52.890
18661W        W10585   6.241  19.235  53.328
18662W        W10586  43.699  31.707  53.789
18663W        W10587   3.745  17.249  51.966
18664W        W10588  22.257  45.701  50.587
18665W        W10589  38.732  28.242  51.071
18666W        W10590   8.275  33.729  49.705
18667W        W10591  29.214  13.274  51.511
18668W        W10592  13.244  33.240  53.777
18669W        W10593  39.732  46.185  53.779
18670W        W10594  26.235   0.253  53.817
18671W        W10595  32.235   9.272  50.159
18672W        W10596   0.772  35.242  50.607
18673W        W10597  35.696  36.194  53.805
18674W        W10598  18.235  40.700  49.705
18675W        W10599   7.252  26.218  53.347
18676W        W10600  42.691  42.222  50.151
18677W        W10601  29.701   2.748  53.358
18678W        W10602  42.201  22.234  51.972
18679W        W10603  45.696   7.279  53.345
18680W        W10604  37.199  42.197  51.054
18681W        W10605   8.769  19.760  52.430
18682W        W10606  19.231  29.243  50.134
18683W        W10607  40.713   8.242  50.605
18684W        W10608   8.756  15.242  50.140
18685W        W10609  41.704  40.725  51.071
18686W        W10610  29.731   0.252  51.072
18687W        W10611  23.742  21.224  51.971
18688W        W10612  18.748  12.278  52.429
18689W        W10613  26.729  38.226  51.951
18690W        W10614  12.776  23.256  51.511
18691W        W10615   5.254  33.726  52.422
18692W        W10616  48.203  35.229  49.668
18693W        W10617  38.699  37.191  53.354
18694W        W10618  30.705  47.214  50.601
18695W        W10619  11.244  21.227  52.414
18696W        W10620   6.261   0.794  51.956
18697W        W10621  40.712   2.747  53.801
18698W        W10622  25.734  48.195  51.954
18699W        W10623  21.255  32.222  53.782
18700W        W10624  33.733   5.745  50.149
18701W        W10625   0.293  47.717  51.528
18702W        W10626  31.243  14.243  50.593
18703W        W10627   2.772  47.701  51.512
18704W        W10628  31.718   7.780  53.809
18705W        W10629   1.778  41.681  52.888
18706W        W10630  36.723  45.718  53.775
18707W        W10631  34.238  42.202  53.340
18708W        W10632  18.738   7.771  51.518
18709W        W10633  13.231  15.265  52.417
18710W        W10634  40.690   2.257  49.668
18711W        W10635  25.211   4.288  52.408
18712W        W10636  24.251  13.246  51.954
18713W        W10637  16.747   5.763  49.702
18714W        W10638  46.720  33.719  50.586
18715W        W10639   0.272   1.252  50.142
18716W        W10640  45.690  25.716  51.968
18717W        W10641  16.247  28.743  53.341
18718W        W10642  48.178  42.682  51.984
18719W        W10643  34.224   5.744  52.438
18720W        W10644  34.220   3.770  52.403
18721W        W10645  27.737   6.255  53.786
18722W        W10646  46.223   4.255  49.682
18723W        W10647  16.760  26.755  53.812
18724W        W10648  26.250  28.219  50.583
18725W        W10649  37.707  47.720  49.692
18726W        W10650   8.770  45.217  50.121
18727W        W10651  18.227  36.213  53.774
18728W        W10652  12.759  35.714  50.606
18729W        W10653  27.220   6.249  51.490
18730W        W10654  22.744   6.774  50.129
18731W        W10655  28.706  30.220  50.600
18732W        W10656  38.228  14.252  50.601
18733W        W10657  37.734  37.724  52.862
18734W        W10658  13.743  39.727  52.420
18735W        W10659  22.752  29.241  50.138
18736W        W10660   6.742  27.218  51.504
18737W        W10661  16.727  28.716  51.497
18738W        W10662  10.740  40.719  50.614
18739W        W10663  44.219  21.735  50.615
18740W        W10664  27.736  10.259  53.335
18741W        W10665  35.715  28.232  51.513
18742W        W10666  47.183   7.284  51.985
18743W        W10667  24.757  23.712  52.877
18744W        W10668   5.281   3.766  53.332
18745W        W10669  18.734  47.198  52.404
18746W        W10670   6.769   9.743  53.792
18747W        W10671  28.250  26.240  51.950
18748W        W10672  35.213  42.696  50.152
18749W        W10673  25.713  38.215  51.048
18750W        W10674   2.279  25.737  49.692
18751W        W10675   6.248  46.722  52.864
18752W        W10676  44.713  32.721  49.671
18753W        W10677   4.769  29.231  51.077
18754W        W10678  24.243  16.244  52.443
18755W        W10679  28.741  32.202  52.403
18756W        W10680  16.749  40.193  51.044
18757W        W10681   4.281  37.235  50.148
18758W        W10682  44.682  19.747  49.676
18759W        W10683  10.256  34.697  52.883
18760W        W10684  34.721  11.243  51.038
18761W        W10685   9.242  37.192  53.791
18762W        W10686   0.260  25.257  51.505
18763W        W10687  39.723  34.724  51.953
18764W        W10688  39.224  17.745  50.605
18765W        W10689  21.248   3.757  52.439
18766W        W10690   3.755  26.224  51.491
18767W        W10691   4.259  38.736  53.343
18768W        W10692  15.227  33.207  49.693
18769W        W10693  29.737  13.761  52.901
18770W        W10694  34.714  14.271  49.688
18771W        W10695  15.260  44.197  51.057
18772W        W10696  31.741   9.781  52.414
18773W        W10697  46.184   8.775  52.405
18774W        W10698  26.255  32.217  53.359
18775W        W10699  20.253  39.186  53.789
18776W        W10700  43.198  18.740  50.587
18777W        W10701  37.737   9.257  50.128
18778W        W10702  11.743  34.195  53.777
18779W        W10703  28.728  20.227  50.618
18780W        W10704   9.248  35.204  49.676
18781W        W10705  40.228   1.280  52.433
18782W        W10706  43.722  34.232  51.498
18783W        W10707  10.237  45.208  53.355
18784W        W10708  45.215   3.249  51.062
18785W        W10709  13.251  13.276  53.775
18786W        W10710   8.255   6.244  53.794
18787W        W10711  27.748   7.769  51.503
18788W        W10712  45.177  47.174  51.527
18789W        W10713  34.701   3.784  51.957
18790W        W10714  25.242  43.184  50.602
18791W        W10715  10.262   1.767  52.895
18792W        W10716  25.231   1.249  51.987
18793W        W10717   7.271  28.228  53.318
18794W        W10718   0.290  19.235  51.966
18795W        W10719  21.215   3.763  50.131
18796W        W10720  40.207  35.193  52.869
18797W        W10721  24.752  39.708  51.518
18798W        W10722  35.231  15.730  51.076
18799W        W10723  40.688  14.743  49.707
18800W        W10724   1.274   8.255  50.613
18801W        W10725  36.204  41.218  50.163
18802W        W10726  16.742   5.747  52.417
18803W        W10727  29.246  20.720  53.793
18804W        W10728  39.691  21.252  52.896
18805W        W10729  11.767  37.696  49.701
18806W        W10730  15.236  42.696  51.066
18807W        W10731   6.750  35.200  50.123
18808W        W10732   2.247  17.733  51.059
18809W        W10733   9.740  31.732  51.984
18810W        W10734  41.692  31.209  52.434
18811W        W10735   3.289  26.241  52.441
18812W        W10736   6.757  15.726  51.976
18813W        W10737  45.694  28.210  50.585
18814W        W10738  46.220   9.768  51.051
18815W        W10739   3.257   4.743  52.864
18816W        W10740  30.700  19.241  50.126
18817W        W10741  33.231   1.748  51.947
18818W        W10742  44.724  29.214  49.698
18819W        W10743  14.727  18.234  51.962
18820W        W10744  14.761   6.753  50.135
18821W        W10745  37.695   2.289  51.490
18822W        W10746  34.209   9.252  52.418
18823W        W10747  47.174  20.724  50.615
18824W        W10748  40.184  15.761  50.614
18825W        W10749  21.251   0.253  52.893
18826W        W10750  43.678  37.729  49.687
18827W        W10751   6.282  19.237  52.878
18828W        W10752   3.774   6.748  52.884
18829W        W10753   1.272   4.273  50.147
18830W        W10754   0.268  10.749  53.810
18831W        W10755   7.255  34.701  51.525
18832W        W10756  34.218  23.724  53.810
18833W        W10757   6.258  18.757  52.429
18834W        W10758  43.718  43.687  52.433
18835W        W10759  32.224  23.739  50.161
18836W        W10760  11.757  16.237  52.416
18837W        W10761  10.268  35.691  51.519
18838W        W10762   4.770  15.244  50.145
18839W        W10763   1.753  20.264  53.772
18840W        W10764  33.703  39.733  50.130
18841W        W10765  34.206  21.740  51.497
18842W        W10766  18.250  25.236  53.786
18843W        W10767  26.229  21.750  49.685
18844W        W10768  12.759   9.771  51.531
18845W        W10769  16.234  31.713  49.666
18846W        W10770   0.752   9.778  51.057
18847W        W10771  44.684   0.251  51.989
18848W        W10772  33.198  12.755  51.954
18849W        W10773  26.229  39.724  49.679
18850W        W10774  22.725  34.731  51.527
18851W        W10775  39.231  29.215  51.986
18852W        W10776  41.708   6.773  50.605
18853W        W10777  26.710  48.194  51.510
18854W        W10778  47.684  44.705  51.063
18855W        W10779  15.264  27.228  53.790
18856W        W10780   1.287  44.180  51.060
18857W        W10781   8.737  15.256  52.862
18858W        W10782  25.231  11.265  52.863
18859W        W10783  30.704  24.253  50.154
18860W        W10784  14.726  26.217  49.690
18861W        W10785   0.299   3.257  52.427
18862W        W10786  48.172  29.718  53.788
18863W        W10787  37.727   5.253  51.978
18864W        W10788  23.229  39.188  50.165
18865W        W10789  44.688   4.272  52.421
18866W        W10790   7.739   1.780  53.359
18867W        W10791  29.725   7.257  51.068
18868W        W10792  35.236   1.293  50.607
18869W        W10793  32.230  41.223  49.665
18870W        W10794  48.207   7.749  51.529
18871W        W10795  33.227  25.709  51.505
18872W        W10796  16.767   6.263  52.900
18873W        W10797  45.177  47.183  51.990
18874W        W10798  17.738  31.225  50.142
18875W        W10799  21.231   4.778  50.579
18876W        W10800  36.693   9.781  49.667
18877W        W10801  32.235   1.754  50.599
18878W        W10802  20.730  31.213  51.966
18879W        W10803  14.256  17.722  49.697
18880W        W10804  31.699   7.265  50.596
18881W        W10805  32.697  32.222  49.690
18882W        W10806  17.254  39.206  51.053
18883W        W10807  18.728  20.736  51.953
18884W        W10808  26.233  28.746  51.949
18885W        W10809  34.195   0.780  53.344
18886W        W10810  36.216  26.256  51.057
18887W        W10811  38.729  17.751  50.138
18888W        W10812  39.192  42.222  51.965
18889W        W10813  29.206  32.208  53.790
18890W        W10814  40.717  24.241  51.966
18891W        W10815  27.208   2.774  52.444
18892W        W10816   0.265  34.217  53.788
18893W        W10817   8.267  21.743  52.870
18894W        W10818  11.264  32.703  49.702
18895W        W10819   6.265  32.697  50.133
18896W        W10820   0.762  21.734  53.334
18897W        W10821   4.751  39.689  53.326
18898W        W10822   0.790  26.713  50.606
18899W        W10823  17.228  27.245  52.881
18900W        W10824  48.200  16.255  53.329
18901W        W10825  15.760  32.725  50.125
18902W        W10826  25.752  35.729  52.439
18903W        W10827   5.262  29.733  51.044
18904W        W10828  44.697  24.235  49.693
18905W        W10829  47.182  34.231  52.447
18906W        W10830  37.723   9.237  51.493
18907W        W10831  15.737  48.177  50.584
18908W        W10832  23.760   9.767  49.671
18909W        W10833  37.198  16.249  50.136
18910W        W10834  18.244   0.755  53.348
18911W        W10835   5.266  10.276  53.805
18912W        W10836  34.214  24.755  52.439
18913W        W10837  39.729  39.217  52.447
18914W        W10838  28.719   7.763  50.163
18915W        W10839  42.182  42.222  52.882
18916W        W10840  31.244  19.260  50.612
18917W        W10841  22.214  34.203  50.121
18918W        W10842   4.769  16.245  50.598
18919W        W10843  20.757  28.734  51.952
18920W        W10844  33.707  46.221  53.814
18921W        W10845   9.778  17.725  53.809
18922W        W10846  47.188   0.783  52.904
18923W        W10847  10.244  43.223  53.786
18924W        W10848  19.731  36.238  52.434
18925W        W10849  20.245  31.223  53.321
18926W        W10850   6.761  26.250  52.867
18927W        W10851  47.193   7.786  52.894
18928W        W10852  29.231  46.201  51.990
18929W        W10853  19.260  28.221  49.674
18930W        W10854   6.752  32.228  53.802
18931W        W10855  39.219  23.238  51.036
18932W        W10856  44.725  30.733  50.147
18933W        W10857  23.243  35.202  53.360
18934W        W10858  10.750  24.229  53.351
18935W        W10859   5.750   5.248  51.035
18936W        W10860  29.751  42.697  50.142
18937W        W10861  33.218  45.678  52.433
18938W        W10862   0.758  21.262  50.621
18939W        W10863  26.248  20.757  51.954
18940W        W10864  27.754  41.718  52.420
18941W        W10865   0.269  22.249  49.679
18942W        W10866  20.244  32.205  52.437
18943W        W10867  43.219   5.758  52.903
18944W        W10868  15.725  24.226  53.324
18945W        W10869  35.693   0.755  51.530
18946W        W10870  26.724  19.242  51.533
18947W        W10871  35.721  33.712  50.585
18948W        W10872  24.720   0.797  51.036
18949W        W10873   9.746  29.214  51.057
18950W        W10874  14.745  22.733  53.774
18951W        W10875  12.767   9.266  51.040
18952W        W10876  33.230  12.746  51.500
18953W        W10877  33.241  35.228  50.594
18954W        W10878   7.774  46.216  51.972
18955W        W10879  23.740   8.238  51.048
18956W        W10880   4.265  17.253  49.693
18957W        W10881  43.711  13.740  53.791
18958W        W10882  47.696  35.223  51.966
18959W        W10883  48.179  19.753  52.899
18960W        W10884   5.781   8.780  51.949
18961W        W10885  25.732  15.257  53.778
18962W        W10886  10.234  13.762  50.584
18963W        W10887  37.191  15.742  52.861
18964W        W10888  37.225  38.200  49.695
18965W        W10889  19.242  21.744  51.957
18966W        W10890  40.691  21.226  50.603
18967W        W10891  37.197  40.706  51.069
18968W        W10892  15.248  48.213  51.982
18969W        W10893   9.757  42.706  49.708
18970W        W10894  17.726  31.220  51.967
18971W        W10895   2.782  41.228  51.966
18972W        W10896  11.747  40.214  51.496
18973W        W10897  44.215   7.239  50.606
18974W        W10898  45.210  25.255  53.797
18975W        W10899   1.257  23.758  50.593
18976W        W10900  26.211  10.244  52.886
18977W        W10901  13.249  44.182  53.321
18978W        W10902  23.732  34.220  49.684
18979W        W10903  28.706  41.707  53.330
18980W        W10904  31.713   8.757  53.817
18981W        W10905   5.758  21.255  50.125
18982W        W10906   8.749  23.249  51.967
18983W        W10907  14.758  31.725  51.521
18984W        W10908  28.750  47.690  53.776
18985W        W10909  15.228  38.713  50.622
18986W        W10910  28.738  12.280  50.125
18987W        W10911  34.215  31.236  52.880
18988W        W10912  42.688   2.767  52.903
18989W        W10913   5.756  28.231  50.146
18990W        W10914  29.206  14.743  52.889
18991W        W10915  31.219  38.236  50.578
18992W        W10916  37.703  44.219  52.435
18993W        W10917  43.717  41.201  50.121
18994W        W10918  35.736  27.710  53.813
18995W        W10919  48.206  27.219  50.590
18996W        W10920   1.250  15.758  52.427
18997W        W10921  27.245  27.724  49.697
18998W        W10922  37.715  17.243  50.144
18999W        W10923  14.263  24.229  51.057
19000W        W10924  41.200  17.765  51.522
19001W        W10925  13.761  23.731  51.512
19002W        W10926  13.772   7.240  52.405
19003W        W10927  30.712  36.730  52.424
19004W        W10928  45.196   1.758  51.058
19005W        W10929  35.720  15.752  49.690
19006W        W10930  21.229  19.726  51.522
19007W        W10931  43.228   4.264  52.869
19008W        W10932   0.761  45.213  52.412
19009W        W10933  48.185  14.761  51.051
19010W        W10934  15.772  19.232  52.888
19011W        W10935   0.272  31.717  52.403
19012W        W10936  39.725  17.750  51.057
19013W        W10937  11.749  27.219  51.069
19014W        W10938  28.210  19.233  53.794
19015W        W10939  21.239   1.292  53.812
19016W        W10940  12.741  32.704  50.139
19017W        W10941   0.757  21.734  53.811
19018W        W10942  43.222  34.213  50.602
19019W        W10943  20.717   0.282  50.153
19020W        W10944  33.713  14.257  52.406
19021W        W10945  31.242   9.766  53.783
19022W        W10946  36.715  16.770  52.898
19023W        W10947  31.221  41.725  52.903
19024W        W10948  18.261  48.200  50.140
19025W        W10949   1.296  46.193  53.779
19026W        W10950  39.719  14.232  50.597
19027W        W10951   9.752  31.200  52.406
19028W        W10952  33.704  34.224  52.424
19029W        W10953   1.756   9.267  51.515
19030W        W10954  19.254  25.747  51.506
19031W        W10955  37.731  15.257  50.133
19032W        W10956  47.211  10.268  53.791
19033W        W10957   2.283  11.767  50.156
19034W        W10958  23.217  47.715  51.950
19035W        W10959   0.755  24.236  53.316
19036W        W10960  36.197  20.263  52.419
19037W        W10961  12.252  25.722  53.323
19038W        W10962  22.722  15.270  50.151
19039W        W10963  29.234   8.778  52.414
19040W        W10964   3.772  36.722  50.590
19041W        W10965  40.691  30.731  53.814
19042W        W10966  35.217  18.766  51.967
19043W        W10967   2.759  14.729  50.139
19044W        W10968   4.278  23.255  52.414
19045W        W10969  42.184  16.267  52.904
19046W        W10970  19.764  13.246  51.495
19047W        W10971   1.265  30.240  53.803
19048W        W10972  25.248  35.732  51.973
19049W        W10973  48.193  39.187  52.411
19050W        W10974  24.244  20.234  49.673
19051W        W10975  40.721   2.289  52.864
19052W        W10976  41.705  25.215  52.899
19053W        W10977   6.245  47.207  52.436
19054W        W10978  16.771  18.761  50.622
19055W        W10979  28.745   9.768  53.340
19056W        W10980  30.748   3.759  50.136
19057W        W10981   4.757  42.192  51.037
19058W        W10982  15.235  19.251  53.352
19059W        W10983   9.756  28.231  52.432
19060W        W10984  15.756  25.743  53.780
19061W        W10985  38.226  28.206  51.954
19062W        W10986  20.258  43.195  50.589
19063W        W10987  15.742   9.258  51.966
19064W        W10988   8.744   5.780  50.156
19065W        W10989  48.213   1.793  52.896
19066W        W10990   9.767   7.241  51.515
19067W        W10991  14.770  30.215  51.492
19068W        W10992  32.210  44.210  53.335
19069W        W10993  33.723   6.262  51.522
19070W        W10994  10.778  23.249  49.691
19071W        W10995  34.737  46.684  53.778
19072W        W10996  26.225  38.221  53.802
19073W        W10997  25.738  14.260  53.799
19074W        W10998   1.271  42.211  52.892
19075W        W10999  12.742  17.727  52.410
19076W        W11000  45.714  48.219  52.898
19077W        W11001  30.223  48.195  52.424
19078W        W11002  23.214  29.228  53.330
19079W        W11003  38.187  46.721  52.862
19080W        W11004   4.770  20.725  52.878
19081W        W11005   1.772  21.265  53.355
19082W        W11006  32.243  41.217  53.329
19083W        W11007   8.773   9.743  51.526
19084W        W11008  34.219   7.281  53.780
19085W        W11009  27.219  44.222  51.961
19086W        W11010  19.725  19.757  51.974
19087W        W11011   6.260  30.702  52.432
19088W        W11012   0.269  28.209  49.675
19089W        W11013  38.237  15.743  52.895
19090W        W11014  23.716  46.722  50.589
19091W        W11015  13.772  33.229  52.878
19092W        W11016  26.744  17.254  52.883
19093W        W11017  46.688   9.243  51.059
19094W        W11018  12.266  13.248  53.785
19095W        W11019   1.267  25.240  52.418
19096W        W11020  41.692  33.725  53.351
19097W        W11021  17.248  39.703  50.126
19098W        W11022   1.796  46.179  52.889
19099W        W11023  47.179  21.717  51.982
19100W        W11024  26.752  39.190  49.688
19101W        W11025  44.708  10.271  49.672
19102W        W11026  16.249   7.280  52.433
19103W        W11027   7.265   8.781  50.586
19104W        W11028  26.247  17.735  50.597
19105W        W11029   3.775  29.245  51.057
19106W        W11030  20.242  33.213  51.515
19107W        W11031  37.731  32.718  51.959
19108W        W11032  29.715  14.266  52.894
19109W        W11033  12.744  30.212  50.129
19110W        W11034  30.224  19.265  49.670
19111W        W11035  42.714  18.265  52.904
19112W        W11036   5.269   3.276  53.337
19113W        W11037   3.253  30.730  52.861
19114W        W11038   0.766  12.773  53.329
19115W        W11039  45.223  27.243  50.145
19116W        W11040  27.753  27.729  51.982
19117W        W11041  37.692   6.273  52.437
19118W        W11042  27.208  15.238  51.064
19119W        W11043  42.690  18.763  50.132
19120W        W11044  23.228  10.264  51.504
19121W        W11045  16.231  18.744  51.500
19122W        W11046  38.194  32.205  50.137
19123W        W11047   3.245  44.203  53.328
19124W        W11048  32.218  47.672  51.052
19125W        W11049  32.729  22.222  51.496
19126W        W11050  12.779   6.272  51.078
19127W        W11051  13.751  42.223  52.903
19128W        W11052  36.723  10.238  51.978
19129W        W11053  18.756  43.722  49.701
19130W        W11054  43.206   2.753  51.496
19131W        W11055  40.707  17.268  50.596
19132W        W11056   9.740  30.216  51.501
19133W        W11057  28.724  42.214  51.954
19134W        W11058  40.722   6.281  49.706
19135W        W11059  15.767  32.703  53.785
19136W        W11060  24.740  25.234  51.960
19137W        W11061   8.740  14.242  53.805
19138W        W11062  42.680  29.713  52.433
19139W        W11063  27.706  24.713  51.947
19140W        W11064  45.702  27.210  50.593
19141W        W11065  37.726  12.273  50.578
19142W        W11066  33.209   9.255  49.690
19143W        W11067  22.243  41.686  51.491
19144W        W11068  43.181  12.273  51.956
19145W        W11069  39.219  36.224  51.063
19146W        W11070  33.701  39.221  52.888
19147W        W11071   2.262  26.232  52.424
19148W        W11072  13.748  28.224  51.990
19149W        W11073  26.743   0.297  52.892
19150W        W11074  18.742  30.701  52.903
19151W        W11075   6.268  43.705  52.877
19152W        W11076  19.258  29.712  53.357
19153W        W11077  34.203  19.721  50.147
19154W        W11078  24.222  11.273  49.687
19155W        W11079  23.248  27.224  52.902
19156W        W11080  23.238  14.251  51.049
19157W        W11081  43.222  20.729  53.813
19158W        W11082  41.689  14.774  53.814
19159W        W11083  29.224  17.759  50.136
19160W        W11084  28.244   4.252  52.881
19161W        W11085  19.248  24.233  52.411
19162W        W11086  36.693  28.214  53.346
19163W        W11087  37.691  43.215  50.578
19164W        W11088  13.727  30.708  51.064
19165W        W11089  47.216  13.767  50.156
19166W        W11090   2.278  23.754  51.516
19167W        W11091  32.741   4.783  52.876
19168W        W11092  39.697  11.777  53.781
19169W        W11093  35.216  25.231  52.413
19170W        W11094  35.706  24.744  51.045
19171W        W11095   4.769  21.226  53.811
19172W        W11096  32.704  16.768  51.968
19173W        W11097  18.237  25.748  53.812
19174W        W11098  14.239  27.239  49.682
19175W        W11099   8.265   6.265  51.496
19176W        W11100  13.243  34.210  50.146
19177W        W11101  47.673  11.772  51.064
19178W        W11102  34.725   7.280  52.448
19179W        W11103   0.756  35.224  51.985
19180W        W11104  38.218  17.248  52.446
19181W        W11105  33.723   9.736  49.693
19182W        W11106   2.770  48.197  51.061
19183W        W11107  15.768   1.265  52.409
19184W        W11108  28.712   8.261  50.588
19185W        W11109   2.758   2.780  53.345
19186W        W11110   4.758  23.234  51.062
19187W        W11111  20.740  22.248  51.962
19188W        W11112  25.236  17.248  53.336
19189W        W11113  48.213  46.703  49.692
19190W        W11114  14.247  46.683  53.807
19191W        W11115  14.247  44.223  51.529
19192W        W11116  33.225  16.733  52.879
19193W        W11117  36.706  22.262  53.793
19194W        W11118  11.753  35.717  53.324
19195W        W11119  47.672  38.220  50.598
19196W        W11120  29.722  22.756  52.406
19197W        W11121  41.194  38.229  51.952
19198W        W11122  38.712   7.745  52.889
19199W        W11123  43.182  40.732  51.502
19200W        W11124  16.258  17.235  51.490
19201W        W11125  20.254  26.251  52.410
19202W        W11126  10.779  32.739  49.688
19203W        W11127  41.683  44.688  53.325
19204W        W11128  12.761  41.195  50.153
19205W        W11129  10.768  41.223  50.128
19206W        W11130  15.735   2.296  50.165
19207W        W11131   6.772   1.776  51.980
19208W        W11132  39.232  46.178  52.414
19209W        W11133  46.686  43.694  53.805
19210W        W11134  42.186  36.716  52.885
19211W        W11135  21.262  12.734  50.600
19212W        W11136  44.208   1.251  53.336
19213W        W11137  26.740  10.755  52.428
19214W        W11138   6.286  28.243  51.954
19215W        W11139  38.731   8.265  52.888
19216W        W11140  34.728  44.703  51.973
19217W        W11141  38.217  28.244  50.611
19218W        W11142  14.229  30.715  49.666
19219W        W11143  15.725  29.719  52.898
19220W        W11144  11.255  36.703  52.867
19221W        W11145   6.259   2.282  51.056
19222W        W11146  39.203   8.781  51.511
19223W        W11147  25.244  29.234  52.412
19224W        W11148   7.245  11.732  53.348
19225W        W11149  43.705  26.255  52.893
19226W        W11150  39.206  12.771  53.360
19227W        W11151  16.266  46.674  53.351
19228W        W11152  38.208   4.248  53.320
19229W        W11153   9.751  21.248  52.877
19230W        W11154   3.246  46.697  52.865
19231W        W11155   8.242  39.696  51.037
19232W        W11156  28.703  32.699  50.617
19233W        W11157   7.777   9.775  52.890
19234W        W11158  18.259  44.706  51.527
19235W        W11159   4.769   4.749  51.973
19236W        W11160  44.723   5.766  52.895
19237W        W11161  40.227  19.751  51.073
19238W        W11162  15.254   6.287  50.618
19239W        W11163  33.208  30.724  50.138
19240W        W11164   9.763  39.722  50.621
19241W        W11165  44.222  29.717  49.692
19242W        W11166  36.223  33.742  51.053
19243W        W11167  16.741  31.247  50.145
19244W        W11168  41.716  32.207  51.991
19245W        W11169  15.229  31.729  53.808
19246W        W11170  19.231   1.776  51.070
19247W        W11171  17.264  22.743  53.323
19248W        W11172  14.750  28.235  53.776
19249W        W11173  15.752  33.200  52.891
19250W        W11174  40.693  37.203  51.496
19251W        W11175   0.753  15.764  50.130
19252W        W11176  12.747   2.251  52.429
19253W        W11177  33.711  40.185  50.134
19254W        W11178  47.220   0.259  52.405
19255W        W11179  37.238   9.267  53.346
19256W        W11180  40.223   0.768  53.334
19257W        W11181  17.256  41.229  49.703
19258W        W11182  27.246  29.213  49.669
19259W        W11183  19.239  11.745  50.618
19260W        W11184  43.690  34.698  51.501
19261W        W11185  17.245  48.187  52.867
19262W        W11186  29.202  44.221  49.691
19263W        W11187  15.762  32.225  53.351
19264W        W11188  17.753  35.195  51.492
19265W        W11189  27.734  39.690  51.955
19266W        W11190  22.248  35.696  53.795
19267W        W11191   3.782  29.235  50.598
19268W        W11192  42.187  26.756  49.673
19269W        W11193   1.273  15.772  51.961
19270W        W11194  24.712   0.781  50.135
19271W        W11195  44.196  18.224  53.804
19272W        W11196  33.239   1.277  50.588
19273W        W11197  43.689  24.743  51.500
19274W        W11198   7.759  13.758  51.519
19275W        W11199  15.233  29.728  50.614
19276W        W11200  46.718  22.762  53.329
19277W        W11201  46.208   1.268  51.071
19278W        W11202  35.197   2.260  51.533
19279W        W11203  24.233  26.217  52.886
19280W        W11204  19.264  23.748  53.339
19281W        W11205  20.752  21.248  49.696
19282W        W11206  16.244  33.236  49.665
19283W        W11207  14.249   8.754  51.069
19284W        W11208   6.760  40.193  50.124
19285W        W11209   8.750  36.735  51.525
19286W        W11210  43.213  19.252  53.322
19287W        W11211  36.721   8.242  52.419
19288W        W11212  18.743  21.227  53.328
19289W        W11213  45.698  31.727  52.431
19290W        W11214  15.751  34.714  52.889
19291W        W11215   2.757  20.237  53.354
19292W        W11216  32.697  40.202  53.349
19293W        W11217  18.732  15.740  53.328
19294W        W11218  20.759  42.686  50.156
19295W        W11219  20.734  15.226  49.673
19296W        W11220  17.735   6.245  50.609
19297W        W11221  18.738   4.763  52.417
19298W        W11222  46.704  14.239  51.979
19299W        W11223  48.194  41.194  53.353
19300W        W11224  22.250  12.257  51.511
19301W        W11225  26.245  19.767  51.036
19302W        W11226  11.231  23.240  52.431
19303W        W11227  15.729  41.223  50.137
19304W        W11228   8.267  38.725  53.804
19305W        W11229   4.281   7.270  53.329
19306W        W11230  26.235  23.712  51.957
19307W        W11231  39.207   8.263  50.602
19308W        W11232  24.214  15.735  51.523
19309W        W11233  40.715   8.284  49.669
19310W        W11234  26.218  23.712  51.532
19311W        W11235  27.238   7.258  51.970
19312W        W11236  20.245  30.712  50.597
19313W        W11237  38.217  30.214  50.125
19314W        W11238  21.237  45.207  52.441
19315W        W11239   2.751  22.730  51.957
19316W        W11240  47.210  32.730  50.622
19317W        W11241  23.240  46.693  51.495
19318W        W11242  14.753  38.208  51.966
19319W        W11243  15.242  22.232  50.587
19320W        W11244  27.754  39.687  51.067
19321W        W11245  43.194  39.720  53.327
19322W        W11246   1.759   1.791  53.338
19323W        W11247  30.699   8.748  53.776
19324W        W11248  15.232   9.273  52.886
19325W        W11249  39.733   1.297  52.887
19326W        W11250  46.704   9.758  51.967
19327W        W11251  13.747  41.693  52.403
19328W        W11252  21.241  11.762  52.423
19329W        W11253  39.730  44.697  52.883
19330W        W11254  27.726  22.727  50.597
19331W        W11255  30.712  18.730  51.041
19332W        W11256  47.176  19.719  51.069
19333W        W11257   4.268  17.228  51.974
19334W        W11258  24.750  33.206  51.040
19335W        W11259  31.699  27.217  52.404
19336W        W11260  16.237  45.214  51.493
19337W        W11261  46.688  12.259  51.532
19338W        W11262  29.742  35.211  52.861
19339W        W11263  27.250  10.757  51.491
19340W        W11264  20.760  20.760  53.318
19341W        W11265  38.221  30.738  51.947
19342W        W11266  31.746  46.214  52.886
19343W        W11267  17.750   3.760  52.884
19344W        W11268  14.747  45.704  52.887
19345W        W11269  47.211  12.250  51.505
19346W        W11270   1.263  31.700  51.502
19347W        W11271  18.729  27.207  49.679
19348W        W11272  21.252  42.217  49.697
19349W        W11273  35.695   6.762  51.517
19350W        W11274  14.245   5.289  51.047
19351W        W11275  30.242   0.257  52.408
19352W        W11276  21.741  12.750  50.134
19353W        W11277  32.711  38.189  53.798
19354W        W11278  15.747  39.227  50.156
19355W        W11279  28.714   2.780  51.527
19356W        W11280  34.721   8.780  50.611
19357W        W11281  25.258  38.190  53.807
19358W        W11282  22.731   3.761  51.522
19359W        W11283  27.240  35.736  53.784
19360W        W11284  16.744  46.713  52.429
19361W        W11285   1.775   0.255  51.528
19362W        W11286   1.775  43.228  51.047
19363W        W11287  40.184  17.732  51.495
19364W        W11288   5.771  42.680  49.672
19365W        W11289   6.258  27.217  51.525
19366W        W11290  23.247  42.202  53.339
19367W        W11291  43.200   8.771  53.318
19368W        W11292  31.727  23.751  50.134
19369W        W11293  17.769  22.715  52.413
19370W        W11294  40.217  12.276  50.159
19371W        W11295  35.707   4.289  49.683
19372W        W11296  27.746  39.218  50.618
19373W        W11297  17.739  37.235  51.073
19374W        W11298  41.209  28.204  51.528
19375W        W11299   5.247  17.731  51.077
19376W        W11300  39.716   3.747  53.336
19377W        W11301  46.201  14.731  51.978
19378W        W11302  28.712  41.724  51.985
19379W        W11303   5.760  32.737  52.866
19380W        W11304   6.781  42.679  50.597
19381W        W11305  17.233  16.265  51.971
19382W        W11306  38.227  26.751  49.684
19383W        W11307  14.238   6.776  50.141
19384W        W11308  10.735  34.703  50.607
19385W        W11309   8.754   6.249  51.056
19386W        W11310  47.216  29.703  50.158
19387W        W11311  41.220  40.208  50.125
19388W        W11312   8.744  15.767  52.900
19389W        W11313  24.245  11.775  51.531
19390W        W11314  39.712  45.677  53.324
19391W        W11315  47.190  28.219  51.975
19392W        W11316   6.247  16.239  53.774
19393W        W11317  39.213   5.256  50.620
19394W        W11318  21.254  34.220  51.051
19395W        W11319  40.188  14.274  51.048
19396W        W11320  21.741  14.760  53.321
19397W        W11321  13.261  10.736  52.880
19398W        W11322  33.703  27.221  50.599
19399W        W11323  36.227  17.767  51.055
19400W        W11324   4.770  45.178  51.974
19401W        W11325  14.228  17.765  53.338
19402W        W11326  39.208  36.697  51.534
19403W        W11327  30.718  21.257  50.144
19404W        W11328  41.204  22.713  52.439
19405W        W11329   5.256  43.704  53.784
19406W        W11330   4.271  38.205  51.491
19407W        W11331  41.705  18.267  51.047
19408W        W11332   1.780  37.717  52.862
19409W        W11333  12.732  33.200  51.982
19410W        W11334  40.217  22.233  50.159
19411W        W11335  16.725   4.758  53.357
19412W        W11336   7.279  29.719  51.076
19413W        W11337  10.740  10.266  53.805
19414W        W11338  43.679   9.776  50.612
19415W        W11339  21.754  33.716  50.619
19416W        W11340   0.771  22.739  51.515
19417W        W11341  26.751  21.257  51.957
19418W        W11342  20.249  27.726  53.786
19419W        W11343  17.230  17.234  51.038
19420W        W11344  38.230  12.236  51.070
19421W        W11345  33.241   2.246  49.685
19422W        W11346  44.188  14.234  51.062
19423W        W11347  47.200  37.234  52.429
19424W        W11348  29.710  13.734  53.775
19425W        W11349   9.235  24.255  52.881
19426W        W11350   0.262  47.684  50.128
19427W        W11351  35.201  32.224  50.585
19428W        W11352  16.767  10.770  53.356
19429W        W11353   0.762  17.239  51.985
19430W        W11354  28.735  17.253  53.787
19431W        W11355  42.189   2.281  49.678
19432W        W11356   3.265  45.219  50.606
19433W        W11357  16.747  45.682  52.408
19434W        W11358  47.199  41.703  51.063
19435W        W11359  42.201  36.199  51.964
19436W        W11360  24.238  16.249  50.600
19437W        W11361   7.258  32.703  52.437
19438W        W11362  11.772  22.252  50.144
19439W        W11363  36.220  35.225  53.777
19440W        W11364  24.720  27.254  52.868
19441W        W11365  25.231  48.177  51.039
19442W        W11366  41.712  38.224  49.677
19443W        W11367  10.752  33.728  52.428
19444W        W11368   0.281  41.684  52.895
19445W        W11369   8.273  16.741  51.522
19446W        W11370   4.260  31.741  49.693
19447W        W11371  43.226   9.266  51.499
19448W        W11372  39.691  23.753  52.408
19449W        W11373  23.715   8.281  49.688
19450W        W11374   1.747   1.748  52.405
19451W        W11375   6.749  33.695  52.430
19452W        W11376  19.730  48.184  49.704
19453W        W11377  22.227  26.239  51.048
19454W        W11378   1.265  20.236  51.038
19455W        W11379  34.713  34.732  52.430
19456W        W11380  16.755   1.763  50.125
19457W        W11381  41.724  44.721  52.444
19458W        W11382  29.223  16.257  52.886
19459W        W11383  14.762  47.708  51.525
19460W        W11384  36.234  45.186  51.040
19461W        W11385  18.241   9.757  50.121
19462W        W11386   4.773  47.687  53.801
19463W        W11387   0.776  43.187  51.041
19464W        W11388  28.707  37.206  53.775
19465W        W11389   8.759  47.217  53.354
19466W        W11390   5.285  20.230  50.135
19467W        W11391   2.256  41.196  53.812
19468W        W11392  33.228  34.717  51.053
19469W        W11393  41.225   9.765  53.350
19470W        W11394   2.778  47.202  53.345
19471W        W11395  22.734  41.216  53.777
19472W        W11396  41.208  31.237  50.144
19473W        W11397  19.229  32.200  50.614
19474W        W11398  41.719   7.285  53.809
19475W        W11399  22.746   9.779  50.155
19476W        W11400  31.201  32.697  51.063
19477W        W11401   3.758  25.740  51.952
19478W        W11402  13.257  17.741  53.773
19479W        W11403  10.766  22.260  52.901
19480W        W11404  43.201  31.199  53.334
19481W        W11405  36.732   9.256  51.505
19482W        W11406   6.279   4.283  49.665
19483W        W11407  44.210  11.767  53.799
19484W        W11408   9.741  11.780  53.361
19485W        W11409  26.715  19.235  53.324
19486W        W11410  12.748  35.735  53.777
19487W        W11411  30.223  31.719  49.694
19488W        W11412  42.206  24.742  52.415
19489W        W11413  26.706  33.220  51.057
19490W        W11414  42.203  17.232  52.892
19491W        W11415   7.784  26.718  51.990
19492W        W11416  26.242   5.747  50.134
19493W        W11417   3.288  26.708  51.968
19494W        W11418   8.742  11.753  51.055
19495W        W11419  30.710  19.753  51.952
19496W        W11420  38.194  36.738  51.036
19497W        W11421  38.691  25.214  49.682
19498W        W11422  21.731   4.287  52.436
19499W        W11423  11.252  38.692  49.695
19500W        W11424  22.241  12.253  52.877
19501W        W11425  25.738  37.234  50.592
19502W        W11426  12.245   5.263  53.361
19503W        W11427  22.237  20.745  51.529
19504W        W11428  13.741  28.711  49.674
19505W        W11429   8.258  18.235  49.673
19506W        W11430  20.247  38.734  50.165
19507W        W11431  11.269  17.265  50.614
19508W        W11432  33.700   4.272  51.964
19509W        W11433  35.207  36.213  51.053
19510W        W11434  25.212  11.248  49.706
19511W        W11435  16.252  12.237  52.417
19512W        W11436  44.694  48.191  51.532
19513W        W11437  15.746   7.780  51.071
19514W        W11438   2.277  39.205  52.433
19515W        W11439   4.265  47.714  51.514
19516W        W11440  38.228   8.740  53.349
19517W        W11441   6.252  19.738  51.066
19518W        W11442  32.733  11.756  53.332
19519W        W11443  14.739  32.737  51.950
19520W        W11444  34.732  28.207  53.339
19521W        W11445  26.254  38.718  52.446
19522W        W11446  32.703  20.264  50.163
19523W        W11447  41.224  32.202  50.614
19524W        W11448  26.231   9.775  53.329
19525W        W11449  12.263  21.259  53.359
19526W        W11450   1.249  22.241  52.440
19527W        W11451  37.690  18.751  51.952
19528W        W11452   7.247  37.707  52.888
19529W        W11453  31.701   9.771  53.333
19530W        W11454  41.230  11.277  50.155
19531W        W11455  19.252  45.700  52.878
19532W        W11456  17.250   8.243  52.899
19533W        W11457  30.214  17.744  50.136
19534W        W11458  38.237  12.259  53.806
19535W        W11459  46.209  33.709  50.146
19536W        W11460  34.206   8.267  51.978
19537W        W11461  31.217   5.742  52.423
19538W        W11462  19.259  11.274  52.867
19539W        W11463  24.729  44.210  51.050
19540W        W11464  21.225   5.758  52.444
19541W        W11465  25.224   5.784  51.056
19542W        W11466  24.713  12.772  51.060
19543W        W11467  45.206  28.239  53.794
19544W        W11468   0.770   4.783  50.614
19545W        W11469  21.261  16.752  51.053
19546W        W11470  47.721  13.267  51.053
19547W        W11471  41.200   6.742  50.127
19548W        W11472  15.729   6.283  50.598
19549W        W11473  13.251  27.733  53.808
19550W        W11474  14.239   6.775  51.073
19551W        W11475   9.278  13.729  53.357
19552W        W11476  42.710  36.213  53.802
19553W        W11477  12.766   5.742  51.989
19554W        W11478  31.699  29.726  50.580
19555W        W11479   8.275   2.246  53.772
19556W        W11480  39.706  20.759  51.074
19557W        W11481   8.783  23.760  50.604
19558W        W11482  27.238   4.260  52.903
19559W        W11483  35.194   5.276  51.948
19560W        W11484  46.709  28.243  50.147
19561W        W11485   4.744   9.758  52.860
19562W        W11486  38.690  48.205  51.038
19563W        W11487  20.217  21.761  53.779
19564W        W11488   2.778  46.721  51.067
19565W        W11489   0.766  13.759  51.050
19566W        W11490   9.278  13.747  49.668
19567W        W11491  34.221  35.208  52.443
19568W        W11492  31.244  38.222  51.977
19569W        W11493  12.761  27.735  51.048
19570W        W11494   9.265  34.203  52.876
19571W        W11495  13.236   0.769  51.079
19572W        W11496  36.202   7.754  51.043
19573W        W11497  35.198  19.248  52.445
19574W        W11498  39.700  17.222  51.079
19575W        W11499  35.202  16.768  53.358
19576W        W11500  14.742  25.227  51.056
19577W        W11501  41.712   1.249  51.534
19578W        W11502  15.760  42.221  52.866
19579W        W11503   1.261  10.774  51.978
19580W        W11504  48.175  16.769  51.505
19581W        W11505  23.726  31.233  50.144
19582W        W11506  21.719  36.692  53.815
19583W        W11507  11.243  23.253  53.356
19584W        W11508  47.174   4.756  49.694
19585W        W11509  14.730   9.770  49.666
19586W        W11510  10.271  44.689  50.604
19587W        W11511  19.244  11.737  51.954
19588W        W11512  24.235  29.208  51.955
19589W        W11513  26.231   1.774  50.150
19590W        W11514   3.277   0.284  52.407
19591W        W11515  27.722   2.248  49.706
19592W        W11516  20.718  12.760  53.804
19593W        W11517  10.764   5.774  53.355
19594W        W11518   7.270   3.781  50.583
19595W        W11519  33.744  48.195  51.976
19596W        W11520   0.794  47.175  51.986
19597W        W11521  11.232  21.216  49.699
19598W        W11522  21.719  20.752  50.603
19599W        W11523   0.777  42.188  52.862
19600W        W11524  16.772   9.254  49.695
19601W        W11525  24.720  33.723  51.065
19602W        W11526  13.262   7.266  52.434
19603W        W11527  46.696  18.244  52.886
19604W        W11528  34.201   4.772  51.977
19605W        W11529  26.254  31.227  52.418
19606W        W11530  21.258  35.200  50.140
19607W        W11531  24.238  43.186  52.863
19608W        W11532  14.733  42.718  51.978
19609W        W11533  11.255   5.262  51.041
19610W        W11534  40.718   1.283  51.501
19611W        W11535  17.252  38.690  50.138
19612W        W11536   5.249   6.283  53.779
19613W        W11537  36.691   6.753  50.129
19614W        W11538  32.704  37.704  51.979
19615W        W11539  19.748  14.763  51.964
19616W        W11540  10.742  16.736  53.784
19617W        W11541   5.761  25.255  53.791
19618W        W11542   4.771  46.684  50.610
19619W        W11543  10.766   0.266  50.606
19620W        W11544  35.221   7.787  49.671
19621W        W11545  36.230  35.715  52.884
19622W        W11546  11.263  46.680  50.611
19623W        W11547  11.780  14.759  52.437
19624W        W11548  18.737   7.277  50.621
19625W        W11549  11.267  42.721  52.883
19626W        W11550  34.213  32.725  52.447
19627W        W11551   2.247  25.219  52.883
19628W        W11552  45.691  28.727  53.799
19629W        W11553  13.236  38.721  52.890
19630W        W11554  22.237   5.286  49.688
19631W        W11555  15.229  39.712  51.988
19632W        W11556  19.242  13.276  51.069
19633W        W11557  34.725   5.775  53.777
19634W        W11558  27.213   6.245  51.984
19635W        W11559  40.724  48.187  51.056
19636W        W11560  14.733  11.767  52.420
19637W        W11561  47.712   8.763  50.595
19638W        W11562   0.750  25.234  51.956
19639W        W11563   9.736  15.731  50.589
19640W        W11564  15.741  42.693  50.593
19641W        W11565  45.716  16.234  52.903
19642W        W11566  42.202  39.190  51.055
19643W        W11567  13.258  43.212  52.408
19644W        W11568  43.218   4.763  50.143
19645W        W11569  22.758  10.752  50.578
19646W        W11570   8.247  17.760  50.602
19647W        W11571  22.216   2.273  53.319
19648W        W11572  41.222  44.695  50.609
19649W        W11573   9.243   2.769  50.620
19650W        W11574   9.765   7.783  51.510
19651W        W11575  36.211  39.219  51.508
19652W        W11576  31.203  33.715  49.708
19653W        W11577  21.729  16.748  51.989
19654W        W11578   7.780   2.283  51.033
19655W        W11579   9.278  45.696  51.960
19656W        W11580  23.238   1.271  51.981
19657W        W11581  38.701  22.253  51.495
19658W        W11582  31.715  21.229  51.056
19659W        W11583  23.711  47.698  51.047
19660W        W11584  14.727  12.270  51.507
19661W        W11585  36.726  30.709  51.070
19662W        W11586  25.247  29.712  53.803
19663W        W11587  44.224  35.734  51.054
19664W        W11588   0.773  11.236  51.049
19665W        W11589  33.712  17.736  53.791
19666W        W11590  18.725  17.227  51.956
19667W        W11591  35.228  30.207  52.901
19668W        W11592  38.211  28.224  51.522
19669W        W11593   5.248   6.770  51.506
19670W        W11594  23.240  27.748  52.440
19671W        W11595  22.738  36.224  51.967
19672W        W11596  39.228  47.703  53.354
19673W        W11597   8.766  11.277  52.896
19674W        W11598  20.719  46.697  51.983
19675W        W11599  16.240  33.711  49.691
19676W        W11600  32.702  21.251  51.512
19677W        W11601  25.737   1.267  52.425
19678W        W11602  47.682  27.737  53.318
19679W        W11603  43.205  22.254  53.339
19680W        W11604  14.265  33.714  52.419
19681W        W11605  15.250   2.778  52.432
19682W        W11606   2.747  38.230  53.320
19683W        W11607  24.727  17.242  49.701
19684W        W11608   1.794  27.236  53.785
19685W        W11609  47.213   5.261  51.963
19686W        W11610  36.216  14.744  53.323
19687W        W11611  45.720  41.696  51.528
19688W        W11612  28.252  27.740  50.584
19689W        W11613  45.715  27.743  51.054
19690W        W11614  14.239  11.752  52.426
19691W        W11615  46.205  36.697  50.608
19692W        W11616  31.223   1.792  49.676
19693W        W11617  26.242  38.206  50.593
19694W        W11618   6.768  29.245  53.775
19695W        W11619  46.701  41.206  52.424
19696W        W11620  10.243  39.233  50.139
19697W        W11621  35.710  45.679  52.434
19698W        W11622  10.767  30.233  52.905
19699W        W11623  28.737  16.735  50.165
19700W        W11624  25.220  13.728  52.433
19701W        W11625  25.757  32.240  52.408
19702W        W11626  28.217  28.210  49.709
19703W        W11627  46.713  33.200  51.513
19704W        W11628   7.249  12.731  50.614
19705W        W11629  16.760  16.230  53.785
19706W        W11630  32.232  27.252  52.869
19707W        W11631   5.758  43.700  53.790
19708W        W11632  11.731  23.744  51.495
19709W        W11633   5.780  41.227  53.345
19710W        W11634   7.239  41.205  53.797
19711W        W11635  28.252  45.180  51.071
19712W        W11636  44.225  15.773  49.690
19713W        W11637   6.257  14.774  52.437
19714W        W11638   7.761   0.775  49.698
19715W        W11639  30.203  32.232  53.808
19716W        W11640  19.268  45.717  51.950
19717W        W11641  38.213  12.731  50.129
19718W        W11642   0.773  13.758  52.414
19719W        W11643  26.737  41.227  51.510
19720W        W11644  36.708  46.687  53.337
19721W        W11645  46.683  36.227  51.050
19722W        W11646  11.264  33.199  52.441
19723W        W11647  23.252   3.747  53.791
19724W        W11648  41.722  36.216  51.045
19725W        W11649  19.232  29.222  51.496
19726W        W11650  30.734  42.185  50.601
19727W        W11651  27.237  18.753  51.534
19728W        W11652   9.270  40.197  50.597
19729W        W11653  43.212   2.795  50.595
19730W        W11654  44.695   9.271  51.498
19731W        W11655  10.280  15.271  52.432
19732W        W11656   1.288  11.766  53.339
19733W        W11657  36.213  28.720  50.155
19734W        W11658  36.722  19.233  53.798
19735W        W11659   4.288  28.218  51.060
19736W        W11660  40.724  31.719  53.779
19737W        W11661   8.271  19.249  52.889
19738W        W11662  32.696  38.686  51.493
19739W        W11663  11.265  40.223  53.321
19740W        W11664  21.743  17.239  50.152
19741W        W11665  39.230  21.264  50.141
19742W        W11666   9.261  19.251  53.339
19743W        W11667  33.721  33.221  51.075
19744W        W11668  13.233  43.728  53.335
19745W        W11669   6.285  19.746  49.674
19746W        W11670  36.707  21.736  50.620
19747W        W11671  30.246  42.220  50.121
19748W        W11672  21.257   2.258  51.070
19749W        W11673  30.213  46.681  51.957
19750W        W11674  12.231   8.268  49.695
19751W        W11675   9.777  39.728  51.050
19752W        W11676  22.759  35.231  53.317
19753W        W11677   2.291  28.215  49.677
19754W        W11678   3.272  21.756  49.674
19755W        W11679  43.208  31.207  49.698
19756W        W11680  48.177  14.261  52.895
19757W        W11681  23.249   7.775  51.968
19758W        W11682  43.192  33.199  53.318
19759W        W11683  40.210  30.716  51.499
19760W        W11684  16.761  20.738  50.125
19761W        W11685   7.744  14.738  50.618
19762W        W11686  19.249  45.196  52.879
19763W        W11687  35.207  26.246  51.535
19764W        W11688  27.708  33.224  52.443
19765W        W11689   6.254  33.744  50.148
19766W        W11690   0.282   6.288  51.039
19767W        W11691  30.703  33.741  51.529
19768W        W11692  31.706  47.695  50.604
19769W        W11693  37.195  35.232  53.351
19770W        W11694   5.264  18.227  51.972
19771W        W11695   9.746  40.215  51.065
19772W        W11696  23.721  40.188  52.860
19773W        W11697  22.713  27.208  52.893
19774W        W11698  13.775  43.218  51.503
19775W        W11699   1.766  19.243  52.410
19776W        W11700   4.276   6.280  51.499
19777W        W11701  25.756  20.750  51.962
19778W        W11702   3.293   0.254  50.619
19779W        W11703   6.283  40.186  53.797
19780W        W11704  26.735  32.727  52.412
19781W        W11705  39.702  19.724  53.803
19782W        W11706  14.268  25.230  51.967
19783W        W11707  44.189  28.737  53.798
19784W        W11708  45.179  46.177  53.786
19785W        W11709  48.197  18.226  50.614
19786W        W11710   4.244  27.216  52.881
19787W        W11711  41.706  11.247  50.144
19788W        W11712  31.228  37.732  49.667
19789W        W11713  42.186  41.202  53.316
19790W        W11714  44.701  18.244  51.966
19791W        W11715   8.766  25.248  50.138
19792W        W11716  36.198  10.741  51.048
19793W        W11717   9.265  19.747  52.862
19794W        W11718  41.714  32.721  53.327
19795W        W11719  40.701   4.245  49.708
19796W        W11720  15.228   6.280  51.500
19797W        W11721   1.777  25.733  52.411
19798W        W11722  44.700  23.726  51.036
19799W        W11723  14.733  46.221  51.076
19800W        W11724  37.236  10.263  52.888
19801W        W11725  33.244  18.256  53.776
19802W        W11726  16.229  34.213  51.977
19803W        W11727  10.279  33.223  51.055
19804W        W11728  38.224  21.736  51.079
19805W        W11729  16.730  46.206  51.060
19806W        W11730  44.678  45.691  51.964
19807W        W11731  17.743   6.741  50.586
19808W        W11732  34.195  44.694  51.966
19809W        W11733  40.224  16.257  51.039
19810W        W11734  10.750  29.724  50.165
19811W        W11735   4.282  45.200  51.960
19812W        W11736  35.709  45.179  51.491
19813W        W11737   0.777  46.184  51.493
19814W        W11738   3.750  44.712  52.436
19815W        W11739  35.238  35.218  49.701
19816W        W11740  47.174  44.193  52.869
19817W        W11741   9.768  44.677  53.797
19818W        W11742  31.229  36.726  51.058
19819W        W11743  40.690  16.242  49.683
19820W        W11744  19.223  11.772  51.492
19821W        W11745  43.722   7.247  49.705
19822W        W11746   3.247   3.245  50.145
19823W        W11747  26.756  21.752  52.898
19824W        W11748  15.265  41.216  52.891
19825W        W11749  16.766  32.700  49.699
19826W        W11750   6.783   4.291  51.076
19827W        W11751   1.291  22.736  51.960
19828W        W11752  42.689  24.235  51.079
19829W        W11753  17.761  12.263  51.975
19830W        W11754  37.726  36.704  51.992
19831W        W11755  12.735   9.246  51.960
19832W        W11756  16.267  33.706  51.972
19833W        W11757  48.189  14.242  51.526
19834W        W11758   4.743  24.714  50.612
19835W        W11759  14.738  28.721  52.431
19836W        W11760  36.222  27.736  50.599
19837W        W11761   0.253   7.275  50.150
19838W        W11762  28.726  31.236  53.817
19839W        W11763   4.257  46.190  53.334
19840W        W11764  24.224  31.738  50.577
19841W        W11765  35.213  16.767  52.897
19842W        W11766   2.746  17.760  53.811
19843W        W11767   7.253  27.210  52.405
19844W        W11768  41.221  32.229  51.510
19845W        W11769  42.700  25.741  52.884
19846W        W11770  37.730  34.218  53.322
19847W        W11771   5.749  16.270  49.702
19848W        W11772  18.249  48.206  50.594
19849W        W11773  21.254   7.252  53.794
19850W        W11774  25.726   6.276  51.514
19851W        W11775  19.759  31.233  53.779
19852W        W11776   7.738  35.730  53.324
19853W        W11777  30.714  11.266  51.055
19854W        W11778   6.776  34.231  53.810
19855W        W11779  15.237   1.772  50.585
19856W        W11780   3.778   3.249  53.347
19857W        W11781  29.239  27.209  53.812
19858W        W11782  23.224  12.739  53.775
19859W        W11783  40.717  44.222  52.408
19860W        W11784   7.777  20.761  50.592
19861W        W11785  20.730  27.213  53.780
19862W        W11786  23.739  40.713  51.959
19863W        W11787  17.229  14.757  52.866
19864W        W11788  40.713  18.226  52.902
19865W        W11789  29.702  42.691  52.903
19866W        W11790   3.257   6.755  51.515
19867W        W11791  21.718  32.223  51.506
19868W        W11792  14.261  14.758  52.422
19869W        W11793  22.756   4.744  50.122
19870W        W11794  14.732  39.705  50.159
19871W        W11795   1.261   5.764  49.695
19872W        W11796  26.221  30.724  49.706
19873W        W11797  13.278  11.248  53.815
19874W        W11798  10.738  26.237  49.680
19875W        W11799  35.198  13.248  51.057
19876W        W11800  28.752  18.737  50.152
19877W        W11801  46.178  16.730  53.806
19878W        W11802  46.178  24.240  52.885
19879W        W11803  28.208  16.765  49.687
19880W        W11804  14.268  41.712  52.419
19881W        W11805  36.735  48.177  49.672
19882W        W11806  20.235  45.206  49.668
19883W        W11807  20.248  19.718  52.410
19884W        W11808  30.237   3.291  53.327
19885W        W11809  30.210  14.273  52.443
19886W        W11810  45.217  30.738  53.352
19887W        W11811  25.725  38.730  50.132
19888W        W11812  32.236  20.722  51.973
19889W        W11813  19.742  16.229  51.507
19890W        W11814  37.196  17.223  51.519
19891W        W11815  16.732  25.221  51.039
19892W        W11816   4.264  32.710  52.886
19893W        W11817   0.288  37.220  50.596
19894W        W11818  28.238  17.237  51.058
19895W        W11819  17.725  41.693  52.891
19896W        W11820  16.232  30.208  53.799
19897W        W11821  19.750  15.766  51.964
19898W        W11822  35.206  38.694  51.056
19899W        W11823   3.787   8.252  52.438
19900W        W11824  28.225  28.747  49.680
19901W        W11825  33.736  15.759  51.494
19902W        W11826  22.740  17.232  53.355
19903W        W11827   6.741  45.208  50.594
19904W        W11828  35.727  37.236  53.316
19905W        W11829  39.233  20.727  52.434
19906W        W11830  43.203  46.183  52.875
19907W        W11831  37.733  47.175  49.694
19908W        W11832  41.715  31.719  51.971
19909W        W11833  41.699  10.238  49.694
19910W        W11834  18.750  28.744  50.142
19911W        W11835  40.226   7.277  52.899
19912W        W11836  37.204   6.778  51.072
19913W        W11837   9.749  12.233  51.971
19914W        W11838  14.764  24.231  52.413
19915W        W11839  31.229  26.247  49.687
19916W        W11840  22.253  31.243  51.071
19917W        W11841  18.747  31.243  51.527
19918W        W11842   3.764  12.252  53.777
19919W        W11843  33.212  22.713  50.123
19920W        W11844  45.702  27.754  53.338
19921W        W11845  33.197  17.730  49.682
19922W        W11846  29.217  46.679  52.405
19923W        W11847   5.254  26.743  51.529
19924W        W11848  44.211  46.713  51.035
19925W        W11849  14.726  36.704  51.503
19926W        W11850  31.708  48.200  50.164
19927W        W11851  25.250  32.246  49.697
19928W        W11852  34.720  35.242  51.531
19929W        W11853  33.704   2.294  49.670
19930W        W11854  27.705  31.223  51.509
19931W        W11855   5.244  41.229  52.895
19932W        W11856  16.256  13.759  51.077
19933W        W11857  42.681   0.796  53.328
19934W        W11858  14.232   3.783  51.491
19935W        W11859  16.227  40.190  51.948
19936W        W11860  12.262  14.756  49.678
19937W        W11861   5.271  22.228  51.516
19938W        W11862  10.753  33.718  51.988
19939W        W11863   4.250  18.235  50.157
19940W        W11864  23.241  17.229  52.888
19941W        W11865  12.251  31.238  52.406
19942W        W11866  34.719   8.783  52.415
19943W        W11867   1.271  14.756  51.950
19944W        W11868  21.745  12.263  50.155
19945W        W11869   0.752  40.687  49.696
19946W        W11870  28.717  16.233  52.445
19947W        W11871  45.188  48.179  50.127
19948W        W11872  25.236  28.715  49.706
19949W        W11873  36.692  19.752  53.346
19950W        W11874  45.677   7.748  50.597
19951W        W11875  18.241  28.731  50.593
19952W        W11876   5.775  12.231  52.429
19953W        W11877  29.740  36.725  49.698
19954W        W11878  12.750  18.260  53.784
19955W        W11879  33.196  34.225  53.800
19956W        W11880  10.235  27.230  51.970
19957W        W11881  35.723  29.710  51.979
19958W        W11882  36.209  30.235  50.622
19959W        W11883   0.791  27.210  53.353
19960W        W11884  35.716  12.264  52.878
19961W        W11885  42.226  47.198  50.140
19962W        W11886  40.693   3.260  52.428
19963W        W11887  10.276  17.758  50.166
19964W        W11888  14.232  44.710  51.064
19965W        W11889  18.748   9.259  52.429
19966W        W11890   6.253  39.726  49.685
19967W        W11891  42.190  45.212  53.319
19968W        W11892  45.723  20.229  53.339
19969W        W11893  12.252  28.715  51.502
19970W        W11894  40.684  32.703  51.955
19971W        W11895  36.719  34.203  52.888
19972W        W11896  23.719  16.267  53.792
19973W        W11897  15.762   7.284  49.695
19974W        W11898  24.218  18.232  52.448
19975W        W11899   8.752  39.226  51.048
19976W        W11900  44.198   2.762  52.899
19977W        W11901  36.198  16.245  49.695
19978W        W11902   7.282   9.750  52.433
19979W        W11903  28.213   4.259  50.597
19980W        W11904  12.270  24.239  51.971
19981W        W11905  20.258  10.242  53.809
19982W        W11906   7.277  22.239  53.782
19983W        W11907  25.711  10.269  51.947
19984W        W11908  17.762  20.240  52.440
19985W        W11909  29.246  33.733  50.603
19986W        W11910  22.214   6.776  52.881
19987W        W11911  19.731  31.201  50.603
19988W        W11912   1.291  32.238  49.679
19989W        W11913  16.764  41.225  51.061
19990W        W11914  16.228  17.256  50.590
19991W        W11915  25.754  40.201  50.596
19992W        W11916  41.684  13.764  51.992
19993W        W11917  25.222  13.746  50.129
19994W        W11918  18.263  32.198  53.361
19995W        W11919  10.758  13.235  51.984
19996W        W11920  13.271  19.743  53.319
19997W        W11921  40.690   8.779  53.341
19998W        W11922   9.753   1.752  53.801
19999W        W11923   7.275  13.730  52.447
20000W        W11924  20.239  18.751  49.705
20001W        W11925  32.724  33.730  51.519
20002W        W11926   7.280  22.251  50.138
20003W        W11927  21.219  35.198  50.587
20004W        W11928   3.249  13.758  50.599
20005W        W11929  25.735  23.726  50.147
20006W        W11930  40.730  29.722  51.500
20007W        W11931  35.694  36.711  50.146
20008W        W11932  32.711  19.753  49.705
20009W        W11933  15.747  38.720  53.796
20010W        W11934  28.709  20.245  53.785
20011W        W11935   4.259  42.189  50.160
20012W        W11936   0.753  25.715  53.793
20013W        W11937  41.729   1.277  50.602
20014W        W11938  20.243   1.292  52.405
20015W        W11939   2.274  38.717  50.585
20016W        W11940  16.749   2.762  52.901
20017W        W11941   2.265   6.277  53.344
20018W        W11942   2.762   8.764  53.340
20019W        W11943  18.766  19.234  53.785
20020W        W11944  42.221   5.760  51.064
20021W        W11945  48.218   0.773  49.678
20022W        W11946   2.281   3.759  52.871
20023W        W11947  38.195  20.219  53.774
20024W        W11948  37.237  31.733  51.989
20025W        W11949  30.710   8.261  51.507
20026W        W11950   5.242  47.690  50.600
20027W        W11951  12.775  41.200  52.882
20028W        W11952  11.769   3.254  50.156
20029W        W11953  20.762  45.194  52.425
20030W        W11954   7.273  27.716  53.797
20031W        W11955  13.777  45.706  53.346
20032W        W11956  27.705  26.211  50.610
20033W        W11957  15.772  23.221  51.961
20034W        W11958  36.232  35.224  52.447
20035W        W11959  37.206   4.763  51.957
20036W        W11960  18.253  33.232  51.506
20037W        W11961   7.278  25.217  50.601
20038W        W11962  29.240  42.182  53.814
20039W        W11963  25.230  32.728  53.353
20040W        W11964  18.234   5.274  52.898
20041W        W11965   0.767  42.685  49.705
20042W        W11966  26.749  23.229  50.603
20043W        W11967  34.742  32.697  53.341
20044W        W11968  20.739  15.240  53.349
20045W        W11969  11.264  25.252  53.349
20046W        W11970  40.192  15.255  50.163
20047W        W11971  46.211  46.717  52.899
20048W        W11972  33.203   0.779  52.889
20049W        W11973  25.737  30.742  51.970
20050W        W11974  14.773   8.770  53.796
20051W        W11975  20.757   2.767  51.503
20052W        W11976  45.701  28.214  53.336
20053W        W11977  22.745   6.243  49.687
20054W        W11978   6.270   0.798  51.067
20055W        W11979  45.190  34.229  52.904
20056W        W11980  22.730  30.747  53.794
20057W        W11981  26.246   1.248  51.513
20058W        W11982   6.267  42.727  51.490
20059W        W11983  13.757  30.208  51.066
20060W        W11984  26.214  39.217  50.613
20061W        W11985  42.189   1.748  49.686
20062W        W11986  37.696  19.257  49.695
20063W        W11987  42.185  34.243  49.705
20064W        W11988   4.754  10.255  49.701
20065W        W11989  37.231  31.236  51.511
20066W        W11990  24.741  47.209  49.698
20067W        W11991  19.228  48.203  53.800
20068W        W11992  34.722  40.689  52.890
20069W        W11993  24.218  39.712  50.583
20070W        W11994  28.714  43.722  51.953
20071W        W11995   0.275   5.265  51.972
20072W        W11996  37.227  43.199  53.340
20073W        W11997  39.191  17.754  53.340
20074W        W11998  30.713  46.217  52.436
20075W        W11999  10.281  37.730  52.899
20076W        W12000  20.755  13.738  51.062
20077W        W12001  15.759  38.213  52.897
20078W        W12002  17.245  35.695  51.976
20079W        W12003  39.685   1.755  51.520
20080W        W12004   1.756  11.245  53.800
20081W        W12005  47.181  13.266  51.966
20082W        W12006  19.725  35.203  51.065
20083W        W12007   3.254  11.258  51.041
20084W        W12008  45.215   0.752  53.811
20085W        W12009  21.238  25.727  51.960
20086W        W12010  33.197   2.789  52.895
20087W        W12011  33.717  31.233  50.598
20088W        W12012  14.736  17.770  51.516
20089W        W12013  28.210  24.757  52.441
20090W        W12014  10.747  35.731  51.535
20091W        W12015  31.230  31.235  50.590
20092W        W12016  38.209   7.241  49.678
20093W        W12017  10.736   0.777  52.422
20094W        W12018  17.253   5.743  50.163
20095W        W12019   1.760  46.690  52.902
20096W        W12020  21.235  20.262  49.682
20097W        W12021   5.256  15.226  51.955
20098W        W12022   7.773  37.198  49.670
20099W        W12023  29.717  19.243  51.987
20100W        W12024  25.755  15.234  52.448
20101W        W12025  29.211  15.757  51.034
20102W        W12026  33.725   2.793  51.522
20103W        W12027   3.780  14.742  50.161
20104W        W12028  13.777  17.239  50.163
20105W        W12029   4.267  43.199  53.321
20106W        W12030  43.193  21.731  51.985
20107W        W12031  35.194  24.245  49.704
20108W        W12032  17.258   8.758  52.874
20109W        W12033  42.188  40.184  53.322
20110W        W12034  19.222  30.710  53.359
20111W        W12035  34.213   6.276  51.495
20112W        W12036  11.257  19.758  49.670
20113W        W12037  16.249   1.797  53.817
20114W        W12038  10.755  47.180  51.948
20115W        W12039   3.266  12.776  53.323
20116W        W12040   1.278  31.226  49.666
20117W        W12041  45.216  29.231  52.409
20118W        W12042   7.768  24.225  53.811
20119W        W12043  17.743  41.222  49.683
20120W        W12044  40.185  14.260  51.506
20121W        W12045  43.704  17.729  49.683
20122W        W12046   1.777  48.183  53.331
20123W        W12047  15.764  23.735  52.877
20124W        W12048  28.732  40.229  51.530
20125W        W12049  38.199  17.247  51.968
20126W        W12050   3.257  34.739  53.355
20127W        W12051  47.713  29.221  52.428
20128W        W12052  22.751  21.744  51.065
20129W        W12053  31.711  11.264  53.810
20130W        W12054   1.291   4.757  51.946
20131W        W12055  20.765  10.267  53.814
20132W        W12056  20.257  25.714  51.501
20133W        W12057  40.230  20.222  52.898
20134W        W12058  20.741   8.245  51.502
20135W        W12059  23.248   6.779  52.860
20136W        W12060  35.198  28.713  50.129
20137W        W12061   6.274  13.239  52.898
20138W        W12062  29.741  24.222  51.975
20139W        W12063  47.703   2.255  49.674
20140W        W12064   7.785   9.283  49.708
20141W        W12065  36.719  39.206  53.809
20142W        W12066  33.244   5.784  52.862
20143W        W12067  20.754  13.764  53.326
20144W        W12068  30.250  19.740  51.530
20145W        W12069  23.729  44.204  51.051
20146W        W12070  11.741  27.713  52.442
20147W        W12071   2.272  17.235  51.519
20148W        W12072  29.251   4.769  53.346
20149W        W12073  24.242  15.728  53.813
20150W        W12074   8.773   2.764  52.881
20151W        W12075  27.210  13.243  51.502
20152W        W12076  30.214   7.282  53.813
20153W        W12077  28.220  45.697  50.156
20154W        W12078  43.690   4.289  52.439
20155W        W12079  30.730  43.727  52.890
20156W        W12080  27.225  21.732  53.779
20157W        W12081  12.769  39.717  53.810
20158W        W12082   6.241  15.271  52.893
20159W        W12083  25.241  17.752  49.664
20160W        W12084  44.214  34.223  51.975
20161W        W12085  31.213  17.730  53.359
20162W        W12086  36.713   8.774  53.348
20163W        W12087   5.278  48.178  51.520
20164W        W12088   9.247  28.746  51.042
20165W        W12089  22.219  15.228  52.435
20166W        W12090   1.250   1.781  51.976
20167W        W12091  43.179   4.293  49.700
20168W        W12092   8.280  11.758  51.034
20169W        W12093  19.257  46.181  50.165
20170W        W12094   5.257   6.242  50.613
20171W        W12095  47.681   0.283  51.063
20172W        W12096   0.286  13.231  51.073
20173W        W12097   9.276  39.731  52.415
20174W        W12098  33.726  45.188  51.074
20175W        W12099  25.754  25.733  52.866
20176W        W12100  13.775   9.240  52.426
20177W        W12101  12.266   9.760  51.947
20178W        W12102  15.245  44.180  53.779
20179W        W12103  19.243   5.749  50.611
20180W        W12104  46.675  11.243  51.073
20181W        W12105  13.252  27.748  50.591
20182W        W12106  21.762  22.251  52.425
20183W        W12107  40.205  29.740  51.980
20184W        W12108  10.744   5.753  52.895
20185W        W12109  43.222  24.712  49.687
20186W        W12110  42.193  34.231  50.616
20187W        W12111  21.232  30.727  53.817
20188W        W12112  35.698  42.194  50.604
20189W        W12113  38.694  20.236  51.494
20190W        W12114  19.743  20.758  51.505
20191W        W12115  19.232  24.734  51.050
20192W        W12116   0.791  40.184  51.037
20193W        W12117  33.206  47.719  53.787
20194W        W12118  44.711  29.207  50.583
20195W        W12119  24.214  34.742  50.619
20196W        W12120  42.700  38.230  53.320
20197W        W12121  39.734  22.731  50.148
20198W        W12122  38.730  21.726  53.804
20199W        W12123  42.695   2.757  53.333
20200W        W12124  21.226  43.727  53.783
20201W        W12125  42.204  41.723  50.160
20202W        W12126  22.758  25.743  51.067
20203W        W12127  15.766  25.212  51.532
20204W        W12128  45.210  30.211  51.071
20205W        W12129  16.751   4.283  52.882
20206W        W12130   9.263   2.784  51.975
20207W        W12131  12.757  41.726  52.865
20208W        W12132  46.189  42.193  50.150
20209W        W12133  11.237  45.678  50.159
20210W        W12134  23.253  25.723  53.784
20211W        W12135  38.218  18.220  51.972
20212W        W12136  30.228  27.708  53.796
20213W        W12137  34.221  30.247  52.416
20214W        W12138  24.221  15.755  52.404
20215W        W12139  19.241  45.184  51.950
20216W        W12140   0.298  33.226  51.519
20217W        W12141  46.176  44.182  50.157
20218W        W12142  13.777   8.275  53.316
20219W        W12143   5.787  43.195  53.340
20220W        W12144  42.690  25.252  53.790
20221W        W12145  31.245  12.755  51.986
20222W        W12146  39.219   7.770  52.417
20223W        W12147  47.700  31.229  51.985
20224W        W12148  12.753  35.193  52.881
20225W        W12149  38.710  37.197  53.797
20226W        W12150  30.245   6.750  53.328
20227W        W12151   0.795  26.218  53.794
20228W        W12152  24.738  19.736  49.696
20229W        W12153  22.736   6.775  51.977
20230W        W12154  27.226  30.242  50.151
20231W        W12155  37.237  33.729  49.670
20232W        W12156  21.216  37.213  51.056
20233W        W12157  32.222  25.710  52.436
20234W        W12158  22.749  26.244  52.879
20235W        W12159  19.224   5.251  52.416
20236W        W12160   5.269  30.215  52.870
20237W        W12161  45.188  41.719  52.431
20238W        W12162  31.734  46.211  53.354
20239W        W12163  44.198  43.683  50.153
20240W        W12164  21.250   3.270  53.354
20241W        W12165  41.723  34.701  53.800
20242W        W12166  16.272  35.236  53.324
20243W        W12167  26.234   9.275  49.677
20244W        W12168  34.198  47.213  53.791
20245W        W12169   5.778  28.729  50.140
20246W        W12170  19.260  44.699  51.061
20247W        W12171  26.243  39.217  52.408
20248W        W12172  21.759   7.762  51.955
20249W        W12173  10.735  44.714  53.318
20250W        W12174  18.735   2.268  52.877
20251W        W12175  31.710  28.234  53.794
20252W        W12176   5.258  13.770  53.331
20253W        W12177   6.775  40.214  50.599
20254W        W12178   3.773  38.702  50.597
20255W        W12179  17.229  35.697  52.425
20256W        W12180  18.267  15.248  51.982
20257W        W12181  39.688  43.211  53.803
20258W        W12182  22.728  20.228  52.887
20259W        W12183  27.726   9.275  51.963
20260W        W12184  15.768  36.738  53.813
20261W        W12185  44.689  38.714  50.585
20262W        W12186  14.266  32.227  52.892
20263W        W12187  23.722  34.721  51.532
20264W        W12188  22.744  15.233  51.062
20265W        W12189  25.736   2.274  50.159
20266W        W12190  39.194  32.740  50.152
20267W        W12191  11.761  10.756  49.706
20268W        W12192   1.268  40.208  52.442
20269W        W12193  25.240   3.780  51.969
20270W        W12194  42.210  39.221  53.357
20271W        W12195  35.207  11.264  53.334
20272W        W12196   2.757  13.230  53.802
20273W        W12197  47.211  28.226  51.056
20274W        W12198  16.229  30.739  51.962
20275W        W12199  17.739  38.232  52.432
20276W        W12200  13.237  45.214  52.870
20277W        W12201   8.759  34.215  52.424
20278W        W12202  34.220   9.762  50.611
20279W        W12203  17.245  46.215  53.328
20280W        W12204  25.254   0.774  49.683
20281W        W12205   8.262  21.740  51.970
20282W        W12206   1.789  20.758  51.533
20283W        W12207   9.764  16.754  52.425
20284W        W12208  30.244  26.233  51.504
20285W        W12209   2.255   4.289  49.669
20286W        W12210  23.755   3.274  51.975
20287W        W12211  22.252  44.698  51.954
20288W        W12212  25.748  23.233  50.150
20289W        W12213  39.222  14.772  51.500
20290W        W12214   4.755  44.716  52.445
20291W        W12215  35.225  20.748  51.044
20292W        W12216  29.735   1.256  52.430
20293W        W12217  10.259  44.698  51.972
20294W        W12218  18.768  44.712  51.531
20295W        W12219  11.775  16.758  51.983
20296W        W12220  37.711  39.204  52.875
20297W        W12221  31.743  12.267  53.349
20298W        W12222  35.716  34.732  52.895
20299W        W12223  14.748  25.234  51.493
20300W        W12224  45.214  27.209  51.058
20301W        W12225  38.707  42.693  52.445
20302W        W12226  37.190   4.249  50.621
20303W        W12227  44.687  27.238  52.441
20304W        W12228   0.263  23.230  51.051
20305W        W12229  31.726  23.726  51.045
20306W        W12230  40.701  38.729  51.970
20307W        W12231  31.723  21.224  52.876
20308W        W12232  20.735  16.758  49.700
20309W        W12233  18.261  30.738  50.607
20310W        W12234  45.677  27.739  52.899
20311W        W12235  11.235  22.734  52.422
20312W        W12236   0.265  10.283  53.342
20313W        W12237  11.775   0.793  53.345
20314W        W12238  10.734  42.220  53.780
20315W        W12239  30.723  27.217  50.137
20316W        W12240   8.242  45.214  51.959
20317W        W12241  32.235   2.764  50.612
20318W        W12242  13.274  18.249  52.444
20319W        W12243  45.692  12.255  53.324
20320W        W12244   6.257   5.267  51.499
20321W        W12245  24.225  28.740  53.339
20322W        W12246  43.693  47.190  49.705
20323W        W12247  14.270  11.251  52.404
20324W        W12248  33.195  29.733  50.162
20325W        W12249  13.756  23.757  51.971
20326W        W12250   6.258   6.783  52.407
20327W        W12251  16.765  26.228  51.503
20328W        W12252  17.248  42.185  51.963
20329W        W12253   9.740  23.745  51.990
20330W        W12254  34.710  47.209  50.581
20331W        W12255  20.257  10.234  50.589
20332W        W12256  31.225  39.220  50.615
20333W        W12257  22.261  17.226  50.593
20334W        W12258  20.233  26.246  52.867
20335W        W12259  13.276   9.254  50.152
20336W        W12260   1.781  38.731  50.132
20337W        W12261  40.730  27.715  50.588
20338W        W12262   6.281  46.711  51.951
20339W        W12263  17.251  24.735  51.508
20340W        W12264  14.275   0.767  53.320
20341W        W12265  24.249  19.235  53.790
20342W        W12266  47.673  46.215  50.156
20343W        W12267   4.766  29.206  52.415
20344W        W12268  30.204  20.222  51.506
20345W        W12269  30.207  47.677  53.814
20346W        W12270  27.705  14.736  53.348
20347W        W12271  33.697   7.764  51.513
20348W        W12272  22.742  32.204  53.800
20349W        W12273  11.739  42.697  53.785
20350W        W12274   3.290  27.748  53.790
20351W        W12275  10.764  36.727  52.443
20352W        W12276  20.265  32.231  50.591
20353W        W12277  35.223  20.238  50.130
20354W        W12278  19.241  24.729  51.947
20355W        W12279  28.751  40.189  53.333
20356W        W12280   7.271   5.269  50.138
20357W        W12281  42.188  20.763  52.417
20358W        W12282   5.252  21.215  50.582
20359W        W12283  47.700  25.229  51.960
20360W        W12284  27.247   1.767  52.434
20361W        W12285  17.267   0.252  51.531
20362W        W12286  11.234   1.259  50.587
20363W        W12287  13.255  42.705  52.868
20364W        W12288   7.282   8.768  50.133
20365W        W12289  39.724   9.260  49.665
20366W        W12290  30.720  32.205  50.601
20367W        W12291  42.703   6.274  52.869
20368W        W12292  41.687  41.228  52.894
20369W        W12293  42.208  38.231  49.684
20370W        W12294  43.725   4.256  51.037
20371W        W12295   9.276   5.269  52.443
20372W        W12296  32.233  11.770  50.122
20373W        W12297  37.234   5.772  50.150
20374W        W12298  32.744   5.774  53.335
20375W        W12299   4.760   9.773  51.068
20376W        W12300  31.713  35.720  53.326
20377W        W12301   6.744  29.718  52.422
20378W        W12302  26.737   3.267  51.952
20379W        W12303  30.703  25.257  53.785
20380W        W12304   4.265  29.219  51.070
20381W        W12305  35.208  21.224  49.687
20382W        W12306  31.712  14.734  50.127
20383W        W12307  25.756   6.266  50.601
20384W        W12308   9.759  37.697  51.983
20385W        W12309  37.722   8.773  50.615
20386W        W12310  13.766   2.754  51.957
20387W        W12311  23.247  17.247  53.796
20388W        W12312   5.259   4.289  50.153
20389W        W12313  38.732  27.239  51.535
20390W        W12314   4.756  27.705  51.970
20391W        W12315   1.765  26.716  50.607
20392W        W12316  10.769  40.715  52.429
20393W        W12317  36.218   0.254  51.502
20394W        W12318   8.286   5.788  50.586
20395W        W12319   2.792  34.217  52.434
20396W        W12320  27.729  39.733  49.666
20397W        W12321  28.752   2.753  49.681
20398W        W12322  37.702  19.248  50.592
20399W        W12323  26.746  25.238  50.165
20400W        W12324  25.251  26.242  52.897
20401W        W12325  39.213  44.177  50.128
20402W        W12326  12.777  46.695  51.980
20403W        W12327   6.283  10.778  50.583
20404W        W12328   8.782  10.281  50.608
20405W        W12329  28.244   5.263  53.810
20406W        W12330  24.756  46.707  51.955
20407W        W12331  23.242  23.744  51.952
20408W        W12332   8.762  10.778  50.601
20409W        W12333  35.217  34.212  50.585
20410W        W12334  41.212   7.254  50.591
20411W        W12335   6.758  21.749  51.070
20412W        W12336  12.241  35.708  49.673
20413W        W12337  12.769  40.233  51.522
20414W        W12338  33.723  11.268  51.504
20415W        W12339  34.736  16.730  50.137
20416W        W12340  11.279  26.715  51.521
20417W        W12341  25.710  34.730  52.437
20418W        W12342  13.268  11.731  51.495
20419W        W12343  36.231  37.726  51.497
20420W        W12344  11.263  25.754  53.801
20421W        W12345  27.713  30.235  52.890
20422W        W12346   6.752  24.257  51.500
20423W        W12347  33.208   2.770  50.612
20424W        W12348   2.758  15.733  51.534
20425W        W12349  16.265  47.204  53.351
20426W        W12350  47.699  19.260  49.680
20427W        W12351  38.229   4.770  50.141
20428W        W12352  17.249  18.254  53.316
20429W        W12353  28.244  38.210  53.794
20430W        W12354  29.703   3.787  51.059
20431W        W12355  38.706   8.754  49.706
20432W        W12356  17.747  28.741  52.418
20433W        W12357   3.793  12.773  53.340
20434W        W12358  45.721  44.192  53.781
20435W        W12359  33.219  38.716  50.610
20436W        W12360   8.238  24.258  53.345
20437W        W12361   5.773  19.249  51.524
20438W        W12362   9.242  24.739  52.899
20439W        W12363  35.229  21.223  51.979
20440W        W12364  47.176  23.226  53.775
20441W        W12365  37.700  41.193  51.048
20442W        W12366  26.748   5.256  51.983
20443W        W12367  17.241   4.761  51.974
20444W        W12368  40.214  19.252  50.141
20445W        W12369  25.245  22.241  50.592
20446W        W12370  34.221   8.258  53.361
20447W        W12371   2.792  32.703  49.673
20448W        W12372  42.727  13.766  49.684
20449W        W12373  41.216   7.751  49.685
20450W        W12374   5.275   1.763  52.877
20451W        W12375  29.717  14.746  52.871
20452W        W12376  23.735  10.759  50.610
20453W        W12377   1.763  46.679  52.441
20454W        W12378   4.250   2.759  51.520
20455W        W12379  17.755  34.241  51.972
20456W        W12380  40.213  35.232  53.799
20457W        W12381  40.187  46.180  50.586
20458W        W12382  19.250  26.733  52.884
20459W        W12383  45.679  22.762  53.791
20460W        W12384  18.764   5.757  53.778
20461W        W12385  45.201   8.282  52.889
20462W        W12386  41.729  17.241  52.424
20463W        W12387  27.749   0.795  50.585
20464W        W12388  30.207  35.197  49.683
20465W        W12389   9.263  42.215  53.814
20466W        W12390  16.732  14.745  52.877
20467W        W12391  43.681  41.213  51.064
20468W        W12392  43.700   8.263  51.981
20469W        W12393  47.717  31.698  51.077
20470W        W12394  38.224  45.213  49.667
20471W        W12395  36.712  12.264  49.689
20472W        W12396  42.698  29.702  52.862
20473W        W12397  42.715   6.257  50.589
20474W        W12398  23.714  20.256  49.670
20475W        W12399   4.754  32.720  53.334
20476W        W12400  34.239   6.247  52.421
20477W        W12401   6.749  22.726  50.619
20478W        W12402  21.256  41.210  53.346
20479W        W12403  14.273   3.793  53.798
20480W        W12404  18.762  15.727  51.976
20481W        W12405  12.768  24.229  53.810
20482W        W12406  28.736  38.208  51.492
20483W        W12407   8.751  41.194  53.317
20484W        W12408  21.230  32.223  51.062
20485W        W12409   7.781  45.678  53.349
20486W        W12410   8.761   4.261  53.322
20487W        W12411   2.774   8.760  50.582
20488W        W12412  36.215  35.194  52.878
20489W        W12413  25.235  27.231  50.586
20490W        W12414  11.266   3.754  51.505
20491W        W12415  45.189   7.272  52.866
20492W        W12416  36.236  21.238  53.789
20493W        W12417   3.288  33.218  49.694
20494W        W12418   8.740  10.252  50.135
20495W        W12419  32.744  17.225  52.885
20496W        W12420  38.694  12.738  50.600
20497W        W12421  15.752  24.730  51.534
20498W        W12422  40.727  45.712  52.431
20499W        W12423  21.763  48.190  53.800
20500W        W12424  43.719   7.254  50.594
20501W        W12425  46.695   7.259  49.681
20502W        W12426  19.726  26.737  53.798
20503W        W12427  28.210  16.763  51.977
20504W        W12428  25.735  47.191  53.354
20505W        W12429  17.739  38.188  51.958
20506W        W12430  36.723   4.253  50.602
20507W        W12431  36.240   1.296  53.329
20508W        W12432  28.247   6.253  51.517
20509W        W12433   9.778  19.227  52.435
20510W        W12434   0.776  32.229  51.979
20511W        W12435  25.735   6.781  50.600
20512W        W12436  33.696  37.221  51.064
20513W        W12437   5.779  33.709  50.123
20514W        W12438  19.754   8.250  53.787
20515W        W12439  19.731  42.194  50.158
20516W        W12440  31.715   4.282  53.320
20517W        W12441  13.233   4.259  51.061
20518W        W12442   9.776  25.248  53.783
20519W        W12443  48.184  12.761  52.881
20520W        W12444  23.228   8.741  52.432
20521W        W12445  11.759  22.761  52.426
20522W        W12446  29.215  14.743  49.688
20523W        W12447  34.741  31.226  50.166
20524W        W12448  29.229  23.749  53.795
20525W        W12449  30.244   9.749  52.864
20526W        W12450  37.198  37.215  53.803
20527W        W12451  18.254  42.199  51.964
20528W        W12452  35.211  39.730  51.971
20529W        W12453  29.708  23.748  52.884
20530W        W12454  24.738   1.792  52.422
20531W        W12455  25.708  48.193  53.790
20532W        W12456  45.214  48.216  53.777
20533W        W12457  33.200   8.776  51.521
20534W        W12458  17.753  48.186  51.525
20535W        W12459  44.182  30.207  51.075
20536W        W12460  44.205  39.697  53.798
20537W        W12461   4.262  22.751  52.890
20538W        W12462  26.730  15.240  51.505
20539W        W12463  13.272  26.732  53.803
20540W        W12464  34.210  35.230  49.669
20541W        W12465  18.259  12.237  51.490
20542W        W12466  48.172  14.746  51.976
20543W        W12467  10.261   2.753  52.412
20544W        W12468  35.711  21.216  51.506
20545W        W12469  18.750   8.247  50.124
20546W        W12470   5.274  39.726  51.973
20547W        W12471   9.738  37.207  52.869
20548W        W12472  35.196  40.704  51.038
20549W        W12473  30.240  42.705  51.957
20550W        W12474  40.690  18.756  50.131
20551W        W12475   4.773  44.223  49.700
20552W        W12476  17.261  25.236  49.669
20553W        W12477  42.219  16.766  51.977
20554W        W12478  35.702   4.775  51.526
20555W        W12479  16.759  41.229  51.987
20556W        W12480  24.758  36.214  51.036
20557W        W12481  17.762  41.227  50.580
20558W        W12482  46.700   5.774  50.616
20559W        W12483  41.685  40.722  53.339
20560W        W12484  38.196  35.727  51.952
20561W        W12485  16.271  30.748  53.807
20562W        W12486  31.241  46.684  52.436
20563W        W12487  43.713  26.725  51.985
20564W        W12488  20.747  15.737  51.510
20565W        W12489  30.246  23.749  53.800
20566W        W12490   2.783  18.734  52.411
20567W        W12491  16.271  47.699  53.361
20568W        W12492   3.253  30.718  50.125
20569W        W12493  39.188  15.267  53.797
20570W        W12494  17.263  33.221  49.685
20571W        W12495  14.733  17.232  53.351
20572W        W12496   2.286  26.714  49.685
20573W        W12497  16.249  20.717  53.812
20574W        W12498  38.219  10.755  49.668
20575W        W12499  43.179  24.238  49.671
20576W        W12500  21.239  23.727  50.124
20577W        W12501  15.247  20.718  49.674
20578W        W12502  28.718   1.759  52.412
20579W        W12503  18.236  27.743  51.058
20580W        W12504  42.708  39.724  51.524
20581W        W12505  25.246  40.690  49.678
20582W        W12506  39.693  34.719  52.873
20583W        W12507  21.728  27.716  51.986
20584W        W12508  21.237  46.206  50.142
20585W        W12509  19.244  11.776  51.061
20586W        W12510   5.783  42.692  52.878
20587W        W12511  37.195  19.240  51.514
20588W        W12512  37.197  17.244  53.806
20589W        W12513  18.245   0.275  50.590
20590W        W12514  27.711  25.725  53.779
20591W        W12515  31.710  30.212  51.047
20592W        W12516  33.736  26.207  49.706
20593W        W12517  47.184  38.713  52.440
20594W        W12518  39.211  16.267  53.813
20595W        W12519  23.743  32.724  50.611
20596W        W12520  12.260  21.751  51.947
20597W        W12521  10.257   9.268  52.890
20598W        W12522  28.739  17.768  52.404
20599W        W12523   2.752  40.220  53.318
20600W        W12524  43.705  40.188  52.438
20601W        W12525  37.705  40.687  51.989
20602W        W12526  40.233  35.712  52.894
20603W        W12527   9.766   2.757  50.150
20604W        W12528  29.743  31.219  50.589
20605W        W12529  34.243  19.243  53.781
20606W        W12530  23.758   1.771  53.316
20607W        W12531  45.692   6.786  52.884
20608W        W12532  44.681  10.741  51.963
20609W        W12533  48.189  34.728  49.703
20610W        W12534  45.191   6.788  53.813
20611W        W12535   1.286   3.286  50.608
20612W        W12536   4.286  34.229  52.432
20613W        W12537  30.724  34.729  51.058
20614W        W12538  18.736  16.224  52.440
20615W        W12539  38.229  43.202  50.136
20616W        W12540  46.196   9.752  53.349
20617W        W12541  38.234  11.271  50.594
20618W        W12542  46.223  33.198  50.581
20619W        W12543   8.240  24.252  50.618
20620W        W12544   7.245  30.231  53.809
20621W        W12545  30.703  28.210  51.078
20622W        W12546  14.762  12.758  52.900
20623W        W12547  27.238  11.265  51.527
20624W        W12548  47.690  41.191  52.413
20625W        W12549  24.744   1.752  52.874
20626W        W12550   5.789  47.212  52.429
20627W        W12551  46.705  33.242  53.357
20628W        W12552  30.206  10.735  50.136
20629W        W12553  27.229  47.218  51.492
20630W        W12554  44.725  47.684  51.954
20631W        W12555   5.259  27.745  52.874
20632W        W12556  21.226   2.794  50.158
20633W        W12557   2.292  13.247  51.952
20634W        W12558  27.739  19.247  50.591
20635W        W12559  26.714   3.787  50.160
20636W        W12560  10.760  45.684  51.059
20637W        W12561  30.728  46.177  52.882
20638W        W12562  35.210   5.790  53.794
20639W        W12563  12.776   4.279  52.874
20640W        W12564  34.712  32.244  50.581
20641W        W12565   4.765  42.685  49.686
20642W        W12566  10.773  18.728  50.132
20643W        W12567  39.233  15.248  50.151
20644W        W12568   9.267  23.749  49.675
20645W        W12569  36.708  28.221  52.420
20646W        W12570  31.230   0.278  51.954
20647W        W12571  18.258  38.217  52.418
20648W        W12572  42.716  46.674  50.148
20649W        W12573  10.247   8.774  52.447
20650W        W12574  35.199   9.755  49.685
20651W        W12575  38.718  10.266  52.863
20652W        W12576   5.255  20.257  51.971
20653W        W12577  13.269  30.229  51.986
20654W        W12578  32.214  28.720  50.157
20655W        W12579  38.189  26.207  53.359
20656W        W12580  15.226  15.256  53.807
20657W        W12581  11.269  30.706  50.603
20658W        W12582  17.737  44.715  51.959
20659W        W12583   8.755  35.729  51.986
20660W        W12584  21.723   5.749  53.340
20661W        W12585  24.240  34.706  51.079
20662W        W12586  24.214  44.691  53.318
20663W        W12587  44.723   7.275  49.666
20664W        W12588  21.717  40.230  52.424
20665W        W12589  40.203  38.224  53.803
20666W        W12590   6.780  44.724  51.518
20667W        W12591  15.252  44.200  49.671
20668W        W12592   3.786   1.275  49.670
20669W        W12593  38.214   2.275  51.051
20670W        W12594  36.213  13.731  53.806
20671W        W12595  34.722   2.776  52.879
20672W        W12596  45.201  18.250  50.602
20673W        W12597  32.739  20.253  53.789
20674W        W12598   5.275   2.253  52.888
20675W        W12599  36.201  46.673  51.064
20676W        W12600  23.238  41.686  53.802
20677W        W12601  29.231  26.712  51.984
20678W        W12602  42.192   0.251  51.499
20679W        W12603  20.737  29.251  53.338
20680W        W12604  44.202  43.696  51.062
20681W        W12605  37.730  45.701  51.967
20682W        W12606   1.778   8.739  51.971
20683W        W12607  24.221  15.228  51.054
20684W        W12608   8.756  38.735  53.794
20685W        W12609  31.205  36.727  50.581
20686W        W12610  18.736   2.265  51.500
20687W        W12611  12.753   2.790  50.595
20688W        W12612   4.281  41.212  52.415
20689W        W12613  28.732  44.190  52.869
20690W        W12614  47.190  18.748  53.343
20691W        W12615  29.719  45.194  50.129
20692W        W12616  16.259   5.773  50.580
20693W        W12617   7.751  39.726  53.808
20694W        W12618  40.190  37.690  52.440
20695W        W12619  38.724  33.208  53.355
20696W        W12620  29.749  34.720  51.976
20697W        W12621  30.248  43.706  50.149
20698W        W12622  10.739  46.699  51.058
20699W        W12623  16.267  26.236  51.053
20700W        W12624  36.720  42.708  53.346
20701W        W12625  42.215  45.188  52.444
20702W        W12626   6.765   8.768  50.613
20703W        W12627  45.204  27.725  50.158
20704W        W12628  10.282   1.254  51.517
20705W        W12629   8.779  12.230  49.705
20706W        W12630  29.704  37.703  51.962
20707W        W12631  38.732  19.228  52.893
20708W        W12632  14.249  20.248  52.407
20709W        W12633   8.778  24.750  50.158
20710W        W12634  17.232  44.197  53.350
20711W        W12635  44.695  12.739  49.680
20712W        W12636   6.746  16.723  53.341
20713W        W12637  22.256  30.238  50.139
20714W        W12638  47.679  39.187  49.697
20715W        W12639  31.221  35.236  52.441
20716W        W12640  18.253  12.750  51.074
20717W        W12641  25.216  31.245  51.491
20718W        W12642   7.771  36.730  52.412
20719W        W12643  24.719  27.708  51.529
20720W        W12644  38.735  13.256  50.160
20721W        W12645  38.230   4.790  51.076
20722W        W12646  40.697  41.720  53.792
20723W        W12647  23.245  39.232  51.969
20724W        W12648  42.717  14.733  51.491
20725W        W12649  36.220  29.703  52.867
20726W        W12650   5.266   9.782  52.901
20727W        W12651  16.757  20.756  49.671
20728W        W12652  18.746  43.695  51.521
20729W        W12653   0.262  48.212  50.128
20730W        W12654  36.732  24.722  53.805
20731W        W12655  14.752   0.254  49.709
20732W        W12656  43.200   4.789  53.329
20733W        W12657  31.240  30.708  51.070
20734W        W12658  48.189   2.260  51.037
20735W        W12659  30.731  35.718  51.073
20736W        W12660  37.222  15.730  53.341
20737W        W12661  29.227   2.290  52.875
20738W        W12662  20.253   3.756  52.873
20739W        W12663  42.206  38.714  53.325
20740W        W12664  47.696  32.197  51.976
20741W        W12665  48.207  28.719  50.593
20742W        W12666  25.243  23.737  49.666
20743W        W12667  18.264  16.764  51.066
20744W        W12668  27.712  36.725  53.813
20745W        W12669   1.773  40.701  50.126
20746W        W12670  48.207  46.174  53.353
20747W        W12671  12.273  14.261  50.149
20748W        W12672  48.181  45.692  52.865
20749W        W12673   2.754   8.261  49.698
20750W        W12674  22.751  23.250  53.319
20751W        W12675   2.262  20.236  53.351
20752W        W12676  39.205  22.236  53.320
20753W        W12677  12.269  17.233  51.954
20754W        W12678  10.272  38.227  51.969
20755W        W12679   4.257  18.736  51.526
20756W        W12680   5.769   6.788  51.525
20757W        W12681  45.215  17.222  52.404
20758W        W12682  24.713   7.770  52.871
20759W        W12683  42.724  37.223  51.047
20760W        W12684  32.210  32.705  51.532
20761W        W12685  18.229  16.231  53.328
20762W        W12686  15.768   3.269  52.859
20763W        W12687  41.707  44.191  52.889
20764W        W12688  30.234  20.743  51.962
20765W        W12689  17.760  47.213  53.776
20766W        W12690  34.215   0.281  50.620
20767W        W12691  28.248  37.205  50.602
20768W        W12692  17.227  21.261  51.060
20769W        W12693  26.725  25.255  53.318
20770W        W12694  47.693  38.702  53.359
20771W        W12695   4.763  15.729  51.065
20772W        W12696  22.748  46.209  52.430
20773W        W12697  33.200   9.253  53.801
20774W        W12698  47.194  15.758  50.600
20775W        W12699  12.245  11.737  51.975
20776W        W12700   7.288  26.712  50.599
20777W        W12701  13.751  43.214  50.134
20778W        W12702   7.274  43.679  53.318
20779W        W12703  22.716  14.254  51.070
20780W        W12704  22.236  33.718  51.068
20781W        W12705   4.784  39.189  52.884
20782W        W12706  14.250  47.677  51.506
20783W        W12707   0.270  40.230  50.618
20784W        W12708   5.289  19.237  51.061
20785W        W12709   0.771  43.706  51.976
20786W        W12710  25.709   2.777  50.140
20787W        W12711  35.737  43.703  50.612
20788W        W12712  41.724  25.725  52.891
20789W        W12713  23.253  46.212  51.535
20790W        W12714   5.766   1.275  52.409
20791W        W12715   1.263  39.210  50.616
20792W        W12716  23.724  22.748  52.881
20793W        W12717   3.254  11.741  53.338
20794W        W12718  35.692  28.242  52.414
20795W        W12719   6.285   3.791  51.968
20796W        W12720   2.253   9.266  50.146
20797W        W12721  11.744  47.682  53.330
20798W        W12722  34.234  22.743  50.609
20799W        W12723  47.175  16.232  51.070
20800W        W12724   4.763  48.193  52.439
20801W        W12725  40.192   7.761  50.163
20802W        W12726  34.232  16.249  50.594
20803W        W12727  25.751  21.254  51.069
20804W        W12728  16.255  25.218  53.328
20805W        W12729  40.229  19.727  51.972
20806W        W12730  22.725  16.746  50.143
20807W        W12731  24.256  24.747  52.897
20808W        W12732  46.220  30.208  51.042
20809W        W12733  18.261  15.747  53.338
20810W        W12734  45.199  30.246  49.708
20811W        W12735  11.746  21.235  51.522
20812W        W12736  45.701   1.280  50.163
20813W        W12737  45.200  11.252  51.966
20814W        W12738  28.737  39.208  52.883
20815W        W12739   1.251  16.254  52.413
20816W        W12740  28.728  28.234  51.054
20817W        W12741  24.754  30.730  50.155
20818W        W12742  33.721  37.698  51.051
20819W        W12743  34.701  38.196  52.867
20820W        W12744  20.246  23.256  52.405
20821W        W12745   3.248  14.762  52.421
20822W        W12746  29.228  15.273  53.812
20823W        W12747  18.742  11.261  52.880
20824W        W12748   4.271  37.733  50.590
20825W        W12749  12.249  42.228  50.142
20826W        W12750   9.284  46.694  51.066
20827W        W12751  11.734  41.195  51.499
20828W        W12752  17.747  22.743  51.974
20829W        W12753  19.247   0.278  50.622
20830W        W12754  47.181  22.759  53.809
20831W        W12755   0.259  43.220  49.704
20832W        W12756   7.251  11.759  52.866
20833W        W12757  31.717  11.778  49.666
20834W        W12758  26.735  43.697  51.954
20835W        W12759  13.748  28.222  52.883
20836W        W12760  40.700   5.257  49.691
20837W        W12761  36.700  31.717  50.164
20838W        W12762  17.237   4.782  49.683
20839W        W12763   4.286  37.190  52.428
20840W        W12764  11.735   6.262  52.897
20841W        W12765  33.697   5.254  51.948
20842W        W12766  33.734  31.713  53.336
20843W        W12767  12.750  22.226  52.867
20844W        W12768   1.772   6.259  52.901
20845W        W12769  40.713  12.775  51.517
20846W        W12770   9.734  23.216  53.317
20847W        W12771  17.767  28.238  51.969
20848W        W12772  44.720   8.272  50.579
20849W        W12773  35.239  28.242  50.621
20850W        W12774  13.236  21.764  53.792
20851W        W12775  34.708  12.774  50.593
20852W        W12776  44.184  24.213  50.125
20853W        W12777  20.759  22.734  53.347
20854W        W12778  36.700  38.226  50.135
20855W        W12779  41.719  32.743  51.503
20856W        W12780  20.734  38.695  52.862
20857W        W12781  28.213  38.235  51.509
20858W        W12782  38.235  23.734  50.152
20859W        W12783  16.247  37.730  52.887
20860W        W12784   9.738  35.241  50.608
20861W        W12785  22.722  11.257  49.696
20862W        W12786  11.755  30.205  49.674
20863W        W12787  16.757  21.264  51.034
20864W        W12788   9.772  14.743  52.891
20865W        W12789  35.198  32.226  53.331
20866W        W12790  33.231  13.271  50.156
20867W        W12791  19.256   4.283  49.698
20868W        W12792   5.289  41.710  53.801
20869W        W12793  29.701  22.243  50.609
20870W        W12794  25.245  34.219  53.360
20871W        W12795  30.239  37.224  53.356
20872W        W12796   3.769  29.724  52.436
20873W        W12797   6.771  13.748  50.141
20874W        W12798  22.246  48.195  52.412
20875W        W12799   4.271  25.239  52.901
20876W        W12800  34.721   3.748  53.352
20877W        W12801  21.745  24.239  52.882
20878W        W12802   7.746  47.692  51.500
20879W        W12803  25.211  47.218  52.409
20880W        W12804  44.698  11.771  52.861
20881W        W12805  34.199  30.235  51.038
20882W        W12806  22.218   1.763  51.987
20883W        W12807   9.768  20.755  51.049
20884W        W12808  36.208   8.758  51.066
20885W        W12809  45.208  17.729  50.596
20886W        W12810  26.735  13.236  53.333
20887W        W12811  39.210  22.728  50.147
20888W        W12812  29.743  22.243  53.804
20889W        W12813   2.295   2.295  51.528
20890W        W12814   2.288  43.182  52.886
20891W        W12815  34.226  12.245  51.071
20892W        W12816  28.742   3.768  50.617
20893W        W12817  27.731  12.231  50.165
20894W        W12818  15.729  42.701  49.705
20895W        W12819  41.718  12.731  51.989
20896W        W12820   2.286  10.256  51.064
20897W        W12821  22.243  21.247  51.527
20898W        W12822   8.766  41.201  50.137
20899W        W12823  27.229  35.197  50.606
20900W        W12824  18.243  17.771  51.492
20901W        W12825   8.259   9.739  52.864
20902W        W12826  40.207  10.740  52.446
20903W        W12827  44.694  25.721  51.956
20904W        W12828  39.706  30.233  52.416
20905W        W12829  24.746  38.232  53.329
20906W        W12830  14.729  25.718  50.607
20907W        W12831  47.216  17.254  52.439
20908W        W12832  33.699  11.753  52.881
20909W        W12833  36.711  31.736  49.702
20910W        W12834   7.247  34.243  52.889
20911W        W12835  31.230  40.697  50.589
20912W        W12836  31.214  23.241  52.444
20913W        W12837  17.224  17.224  52.883
20914W        W12838  33.708   7.746  52.904
20915W        W12839  12.769  45.709  51.063
20916W        W12840  16.743  23.736  52.424
20917W        W12841  28.728  42.685  53.805
20918W        W12842  42.213  16.723  51.519
20919W        W12843  47.182  31.716  53.358
20920W        W12844  40.231  23.757  52.403
20921W        W12845  39.722  40.186  52.877
20922W        W12846  15.244  14.747  52.900
20923W        W12847  11.733  18.262  52.880
20924W        W12848  38.208  35.705  51.078
20925W        W12849  12.233   3.291  53.326
20926W        W12850  28.716  22.720  52.903
20927W        W12851  30.729  38.229  51.495
20928W        W12852   4.259  17.727  52.411
20929W        W12853  35.209  38.696  52.879
20930W        W12854  32.240  26.711  51.056
20931W        W12855  36.224  17.246  53.798
20932W        W12856  45.182   5.254  53.327
20933W        W12857  15.732  18.234  50.129
20934W        W12858  38.721  43.194  51.066
20935W        W12859  46.705   4.259  50.164
20936W        W12860  11.741  17.250  50.124
20937W        W12861   6.251  29.747  51.511
20938W        W12862   5.770  28.712  51.985
20939W        W12863  43.179  24.233  52.405
20940W        W12864   8.778  43.197  52.417
20941W        W12865   3.761  36.197  51.497
20942W        W12866  41.687  43.706  50.153
20943W        W12867  38.696  38.702  50.158
20944W        W12868  23.720  10.279  53.328
20945W        W12869  13.270  23.747  49.698
20946W        W12870  15.246  33.207  51.060
20947W        W12871  44.201  12.730  53.789
20948W        W12872  24.722  42.213  53.783
20949W        W12873  23.216  44.186  51.505
20950W        W12874  13.252   3.247  49.668
20951W        W12875  28.215  39.718  50.596
20952W        W12876  20.245  18.746  50.139
20953W        W12877  14.741   9.764  50.597
20954W        W12878  23.752  36.719  51.981
20955W        W12879  43.720  19.232  52.869
20956W        W12880  24.731  43.206  50.163
20957W        W12881  37.706  39.700  51.050
20958W        W12882  40.225  18.767  53.343
20959W        W12883  37.735   0.769  49.695
20960W        W12884  17.265   9.761  53.327
20961W        W12885  46.691  29.740  53.783
20962W        W12886  19.736  11.254  51.990
20963W        W12887  21.718  41.717  51.068
20964W        W12888   2.753   0.778  53.358
20965W        W12889  34.197  12.231  49.681
20966W        W12890  29.723  14.749  50.618
20967W        W12891  14.729  29.703  50.163
20968W        W12892  22.221  31.719  53.323
20969W        W12893  43.212  28.230  52.436
20970W        W12894  32.702  31.238  49.688
20971W        W12895  20.252  40.693  52.902
20972W        W12896  45.189  44.724  51.060
20973W        W12897   1.754  36.724  51.511
20974W        W12898  14.731  47.196  52.893
20975W        W12899   3.751  19.766  51.041
20976W        W12900  27.706  42.688  50.582
20977W        W12901  17.269  12.777  51.513
20978W        W12902  11.742   2.793  51.532
20979W        W12903   1.779   1.254  53.792
20980W        W12904   5.252  16.727  51.067
20981W        W12905  32.220  38.717  52.404
20982W        W12906  10.281   6.253  51.072
20983W        W12907  32.716   1.281  51.966
20984W        W12908   8.270   5.251  49.704
20985W        W12909  12.247  33.722  50.148
20986W        W12910  19.239  28.215  50.612
20987W        W12911  15.764  18.731  51.515
20988W        W12912   1.776   3.774  53.812
20989W        W12913   5.780  39.733  51.992
20990W        W12914  45.719  39.699  53.332
20991W        W12915   9.744  23.733  49.674
20992W        W12916  17.770  32.204  50.609
20993W        W12917  43.678  23.754  51.502
20994W        W12918  41.205  40.693  53.780
20995W        W12919  21.725   4.262  51.073
20996W        W12920  11.770  18.764  52.880
20997W        W12921  11.731   6.763  52.431
20998W        W12922  33.734   6.286  52.887
20999W        W12923  12.777  29.743  51.490
21000W        W12924  37.695  21.254  51.067
21001W        W12925  14.238  38.220  53.329
21002W        W12926  11.280   4.774  49.693
21003W        W12927  40.711   6.757  51.949
21004W        W12928  18.731  46.678  50.578
21005W        W12929  14.235  41.206  52.893
21006W        W12930  23.729  12.774  50.126
21007W        W12931  42.689  37.712  52.875
21008W        W12932  23.723   5.785  52.899
21009W        W12933  38.224  44.191  51.497
21010W        W12934  32.703  22.261  53.353
21011W        W12935  43.702   8.745  52.883
21012W        W12936  30.207  26.711  51.958
21013W        W12937  13.761  18.763  50.157
21014W        W12938  35.720  40.692  50.162
21015W        W12939  38.235  18.740  51.495
21016W        W12940  31.744   1.764  50.158
21017W        W12941  46.203   8.785  51.532
21018W        W12942  27.237  19.236  49.697
21019W        W12943  41.713   1.255  52.893
21020W        W12944   0.774  20.245  51.053
21021W        W12945  39.690  31.232  51.072
21022W        W12946  17.229  24.244  49.673
21023W        W12947   9.264  37.705  51.502
21024W        W12948   5.247  41.186  53.785
21025W        W12949  40.710  11.755  50.131
21026W        W12950  39.722   4.263  51.492
21027W        W12951  16.235  38.710  53.779
21028W        W12952  42.223  45.676  49.704
21029W        W12953  47.186  27.715  51.988
21030W        W12954  18.241  40.203  52.447
21031W        W12955   9.252  30.221  53.322
21032W        W12956   9.260   2.280  50.148
21033W        W12957   5.772  16.752  49.674
21034W        W12958  29.720  32.207  53.816
21035W        W12959  34.740  30.246  50.164
21036W        W12960  29.719  21.258  51.972
21037W        W12961  46.697   0.268  51.034
21038W        W12962  23.252  39.719  52.884
21039W        W12963  14.237  37.189  53.796
21040W        W12964  34.196  32.708  49.677
21041W        W12965  25.236  30.242  50.622
21042W        W12966  46.699   5.749  50.149
21043W        W12967  31.732  28.718  52.904
21044W        W12968  22.734  34.697  50.136
21045W        W12969  47.195   8.771  53.320
21046W        W12970   1.297  21.719  50.611
21047W        W12971  30.714  26.242  53.349
21048W        W12972  24.242  34.713  49.688
21049W        W12973  14.233   3.275  50.612
21050W        W12974  41.688  35.202  53.780
21051W        W12975  18.727  41.223  52.442
21052W        W12976   7.285  44.225  53.774
21053W        W12977  22.743  17.769  51.037
21054W        W12978  43.683  19.733  51.964
21055W        W12979  17.768  23.219  51.530
21056W        W12980  38.195   6.752  53.796
21057W        W12981  40.712  11.239  53.776
21058W        W12982  44.711  47.709  52.410
21059W        W12983   2.289  21.242  51.990
21060W        W12984  42.221  45.686  52.886
21061W        W12985   4.760  31.201  49.690
21062W        W12986  47.216   1.262  53.807
21063W        W12987  45.710  32.233  51.977
21064W        W12988  34.224  15.762  53.782
21065W        W12989  35.205  27.241  52.420
21066W        W12990  45.209  34.714  50.607
21067W        W12991   4.254  45.688  53.802
21068W        W12992  27.716  46.704  50.617
21069W        W12993   1.758   7.738  52.865
21070W        W12994  43.227   7.285  53.343
21071W        W12995  44.181  17.257  50.594
21072W        W12996   6.776  10.744  52.433
21073W        W12997  26.209  13.749  53.776
21074W        W12998  26.732  43.721  50.148
21075W        W12999  32.207  11.744  50.596
21076W        W13000  26.744  47.213  51.508
21077W        W13001   0.782  44.710  51.983
21078W        W13002  39.226  24.241  51.979
21079W        W13003  41.197  11.740  52.898
21080W        W13004   4.266  44.677  52.890
21081W        W13005  29.749  30.217  51.977
21082W        W13006  27.208  21.739  50.144
21083W        W13007  11.738  32.219  49.699
21084W        W13008  26.712  28.745  50.605
21085W        W13009  48.182   5.778  51.531
21086W        W13010   1.269  42.726  53.341
21087W        W13011  12.775  40.223  52.893
21088W        W13012   3.764  23.714  51.515
21089W        W13013  16.762   5.250  52.435
21090W        W13014  42.684  47.185  50.164
21091W        W13015  12.735  36.238  51.985
21092W        W13016  12.246  39.696  51.531
21093W        W13017   1.765   2.253  52.894
21094W        W13018   7.738  30.238  52.442
21095W        W13019  44.224  16.767  52.408
21096W        W13020  44.709  20.250  49.688
21097W        W13021  43.710  43.180  49.692
21098W        W13022  16.261  42.193  53.797
21099W        W13023  27.724   4.256  50.143
21100W        W13024  22.760   5.267  49.705
21101W        W13025  43.190   9.262  49.703
21102W        W13026   5.741  26.254  52.877
21103W        W13027  41.730   4.786  50.133
21104W        W13028   3.781  10.750  51.071
21105W        W13029  43.208  13.240  50.141
21106W        W13030  16.268  40.699  50.617
21107W        W13031  17.731  23.751  51.957
21108W        W13032  12.247  48.217  52.423
21109W        W13033   9.738  31.206  52.895
21110W        W13034  24.227  40.717  52.904
21111W        W13035  21.744  32.223  50.612
21112W        W13036  10.279  35.699  49.701
21113W        W13037   2.250  44.197  51.532
21114W        W13038  19.756   2.753  51.950
21115W        W13039  20.256   8.773  53.330
21116W        W13040  25.713  42.700  50.126
21117W        W13041  16.242  27.708  51.499
21118W        W13042  23.739  34.204  52.893
21119W        W13043  18.241  35.192  49.683
21120W        W13044   6.763  12.735  49.684
21121W        W13045  39.214  25.235  50.588
21122W        W13046  37.717  44.692  52.411
21123W        W13047   1.284   4.286  50.594
21124W        W13048  17.263  21.727  50.586
21125W        W13049  22.752  43.685  51.039
21126W        W13050  31.239  13.261  53.350
21127W        W13051  30.228  44.705  50.140
21128W        W13052  45.205   7.265  53.773
21129W        W13053   1.255  41.209  52.412
21130W        W13054  41.185   7.742  51.038
21131W        W13055  40.186   6.769  53.324
21132W        W13056  10.260  31.236  51.056
21133W        W13057  32.216   6.780  51.961
21134W        W13058  20.737  28.207  51.517
21135W        W13059  45.190  33.217  50.607
21136W        W13060  20.722  40.199  52.892
21137W        W13061  25.216  47.699  52.900
21138W        W13062  41.703  29.702  51.073
21139W        W13063  35.707  17.266  52.416
21140W        W13064   1.797  34.195  51.078
21141W        W13065  22.753   6.261  51.954
21142W        W13066   8.736  12.773  52.434
21143W        W13067  22.220  45.695  50.124
21144W        W13068  14.747   8.256  51.490
21145W        W13069  31.211  44.695  52.404
21146W        W13070  22.251  38.729  51.501
21147W        W13071  18.766   6.752  50.592
21148W        W13072  25.725   6.749  53.345
21149W        W13073  20.761  21.744  53.336
21150W        W13074  43.728   1.265  51.042
21151W        W13075  22.216   7.751  51.502
21152W        W13076  34.195  18.750  50.157
21153W        W13077  27.227   6.241  50.609
21154W        W13078  29.703  39.229  51.526
21155W        W13079  39.700   4.278  49.666
21156W        W13080  21.227   1.272  51.528
21157W        W13081  21.721  35.209  51.987
21158W        W13082  33.244   4.790  49.670
21159W        W13083  21.241  31.221  51.972
21160W        W13084  35.737  36.735  52.448
21161W        W13085  48.204  33.240  51.990
21162W        W13086  43.679  23.751  50.609
21163W        W13087   3.278  34.712  51.496
21164W        W13088  31.735  35.218  50.145
21165W        W13089  38.216   1.265  51.054
21166W        W13090  22.755   3.759  53.787
21167W        W13091  27.245  12.761  53.779
21168W        W13092  32.734  24.236  51.053
21169W        W13093   9.248  35.201  50.134
21170W        W13094  43.215  37.227  51.075
21171W        W13095  43.189  40.194  52.419
21172W        W13096   5.790   1.793  49.679
21173W        W13097  47.212  34.741  52.403
21174W        W13098   1.762  44.720  53.325
21175W        W13099  31.211   8.254  53.808
21176W        W13100  10.254  42.190  50.592
21177W        W13101  46.194  26.255  50.592
21178W        W13102  32.201  34.703  51.980
21179W        W13103  29.236  43.685  50.619
21180W        W13104  23.728  17.246  49.704
21181W        W13105   1.269  23.261  50.140
21182W        W13106  24.239   0.790  53.782
21183W        W13107  37.216  39.222  51.040
21184W        W13108  31.745  29.230  51.062
21185W        W13109  25.217   2.261  49.689
21186W        W13110  23.756  26.226  53.816
21187W        W13111  36.721   7.254  53.775
21188W        W13112  24.214  19.249  53.328
21189W        W13113   6.751  10.249  50.608
21190W        W13114  22.224  25.217  52.876
21191W        W13115   8.780   3.294  50.582
21192W        W13116  36.237  11.780  52.893
21193W        W13117  26.733  46.211  51.951
21194W        W13118   3.770  16.732  52.427
21195W        W13119  14.244  13.767  51.957
21196W        W13120   8.740  38.228  49.690
21197W        W13121  43.717  39.200  51.509
21198W        W13122  47.208  31.216  53.775
21199W        W13123  47.678  18.732  50.606
21200W        W13124   5.748   7.786  52.876
21201W        W13125  27.732  37.196  53.348
21202W        W13126  36.199   1.776  51.506
21203W        W13127  41.190  26.239  52.904
21204W        W13128  14.743  18.752  52.448
21205W        W13129   2.788  38.702  50.140
21206W        W13130  35.719  15.237  52.448
21207W        W13131  42.715  14.768  49.666
21208W        W13132  17.226  32.202  51.517
21209W        W13133  36.689  26.229  53.801
21210W        W13134  39.733  18.720  53.816
21211W        W13135  13.775  47.706  52.429
21212W        W13136   6.260  18.255  51.947
21213W        W13137   3.269  47.694  51.072
21214W        W13138  26.242  24.211  50.595
21215W        W13139  40.710  38.724  53.359
21216W        W13140  28.249  12.245  50.153
21217W        W13141   3.266   4.746  51.970
21218W        W13142  25.213   2.776  52.428
21219W        W13143  37.724  24.723  53.809
21220W        W13144   8.747  43.188  50.586
21221W        W13145  13.774  24.721  51.963
21222W        W13146  29.730  38.216  50.588
21223W        W13147   9.750  32.742  51.052
21224W        W13148  13.277   2.262  51.076
21225W        W13149   6.760  32.207  51.530
21226W        W13150  35.237  35.733  50.152
21227W        W13151  31.226  13.252  51.981
21228W        W13152  45.184  40.708  50.611
21229W        W13153  45.693  10.760  49.683
21230W        W13154  36.735  48.190  52.442
21231W        W13155   0.782  29.723  50.622
21232W        W13156   7.771  21.254  53.332
21233W        W13157  26.210  38.190  51.527
21234W        W13158  41.193   6.259  51.948
21235W        W13159  25.735  30.744  49.684
21236W        W13160  21.218  46.207  51.951
21237W        W13161  30.244  41.718  53.332
21238W        W13162  17.238  45.720  49.667
21239W        W13163  38.193  42.183  52.892
21240W        W13164  30.702  12.768  52.904
21241W        W13165  17.262  34.721  52.869
21242W        W13166   1.759  17.727  51.068
21243W        W13167  22.249  29.714  49.697
21244W        W13168  10.741   1.259  49.703
21245W        W13169  14.248  38.734  51.981
21246W        W13170   3.788  36.224  53.328
21247W        W13171  25.247  44.686  51.078
21248W        W13172  34.721   2.781  53.335
21249W        W13173  30.744  36.191  53.339
21250W        W13174  43.688  32.713  51.528
21251W        W13175   8.257  33.224  51.526
21252W        W13176  19.742  32.215  52.438
21253W        W13177  34.714   1.762  52.879
21254W        W13178  17.760  21.256  53.359
21255W        W13179   9.753  21.725  53.805
21256W        W13180  25.718  36.726  49.672
21257W        W13181  33.202  10.773  50.604
21258W        W13182  33.725  33.225  51.978
21259W        W13183  20.764  35.692  51.518
21260W        W13184  10.739  37.707  52.891
21261W        W13185  19.265  23.719  52.441
21262W        W13186   1.264  30.723  51.511
21263W        W13187  21.764  15.257  49.699
21264W        W13188  33.737   0.289  52.866
21265W        W13189  33.244  42.198  53.812
21266W        W13190  13.233  26.257  49.701
21267W        W13191  37.231  23.229  49.670
21268W        W13192  13.762  30.709  49.706
21269W        W13193  18.237  13.734  49.672
21270W        W13194  35.720  41.710  51.038
21271W        W13195  16.762  31.237  49.688
21272W        W13196  48.193  41.199  50.127
21273W        W13197  35.716  27.216  51.527
21274W        W13198  30.704   8.270  53.335
21275W        W13199  27.231  19.767  53.340
21276W        W13200   9.757  39.192  53.812
21277W        W13201  42.186  33.743  53.336
21278W        W13202  44.690  11.248  50.146
21279W        W13203  41.200  14.238  51.045
21280W        W13204  17.264  45.183  51.513
21281W        W13205  30.246  29.717  50.599
21282W        W13206  24.211  17.226  50.163
21283W        W13207  35.695   8.252  51.985
21284W        W13208  34.732  22.714  51.054
21285W        W13209  29.203  26.729  50.130
21286W        W13210  23.715  24.256  52.904
21287W        W13211   4.770  44.680  52.875
21288W        W13212   5.279  11.740  51.497
21289W        W13213   1.762  23.718  52.895
21290W        W13214  32.727  48.207  50.150
21291W        W13215  40.688  10.755  52.884
21292W        W13216  17.244  17.243  51.528
21293W        W13217  32.745   2.257  53.356
21294W        W13218  27.750  34.721  49.682
21295W        W13219  46.187  45.707  50.123
21296W        W13220  11.763  23.720  52.901
21297W        W13221   3.290  30.240  51.497
21298W        W13222  11.232  29.731  51.964
21299W        W13223  24.221  29.744  51.974
21300W        W13224  46.211  16.750  50.154
21301W        W13225  11.232  13.239  51.491
21302W        W13226  33.207  39.231  52.444
21303W        W13227  45.720  41.204  52.437
21304W        W13228   7.748  27.737  51.960
21305W        W13229   7.240  18.742  53.789
21306W        W13230  20.719  17.242  50.138
21307W        W13231   6.760   9.284  50.141
21308W        W13232  42.688  14.771  53.350
21309W        W13233  44.707   7.777  52.904
21310W        W13234  11.762  10.236  52.419
21311W        W13235   0.763  16.730  51.501
21312W        W13236  27.712  12.249  51.529
21313W        W13237   3.777  34.713  51.058
21314W        W13238  41.697   8.282  52.869
21315W        W13239  34.233  35.734  52.899
21316W        W13240  45.698   0.286  49.674
21317W        W13241  38.200  13.272  52.413
21318W        W13242  18.248  29.706  51.949
21319W        W13243  22.738  38.193  51.036
21320W        W13244  43.199  46.703  50.578
21321W        W13245  21.753  46.216  49.704
21322W        W13246  28.746  42.193  51.038
21323W        W13247  11.270  42.689  53.341
21324W        W13248  34.699  25.712  52.424
21325W        W13249  26.241  24.738  53.774
21326W        W13250  17.748  40.185  50.153
21327W        W13251   6.775  15.260  53.320
21328W        W13252  38.688   4.264  53.793
21329W        W13253  29.745  24.758  50.599
21330W        W13254  24.713  10.775  50.584
21331W        W13255  16.733   6.287  50.579
21332W        W13256   1.786   4.285  51.967
21333W        W13257  45.204  28.235  50.588
21334W        W13258   3.770  44.679  50.589
21335W        W13259   3.285   7.762  51.957
21336W        W13260  14.270  46.698  50.616
21337W        W13261  17.749   3.767  50.147
21338W        W13262  28.233  28.208  50.582
21339W        W13263  37.212  33.696  51.065
21340W        W13264   6.782  25.712  50.136
21341W        W13265   6.760  45.709  51.043
21342W        W13266  40.209  16.759  49.671
21343W        W13267  43.699  17.256  52.437
21344W        W13268  38.693  40.700  51.979
21345W        W13269   3.277  22.247  53.800
21346W        W13270  19.259  43.194  52.414
21347W        W13271  42.716  11.280  50.132
21348W        W13272   1.283   9.272  51.988
21349W        W13273   9.279  45.185  49.678
21350W        W13274  19.722  25.235  50.606
21351W        W13275  24.719  45.206  52.440
21352W        W13276  37.199  17.771  50.128
21353W        W13277   0.753  14.232  50.162
21354W        W13278  19.739   3.791  53.353
21355W        W13279  41.718  20.232  51.047
21356W        W13280  41.188  37.692  49.701
21357W        W13281  11.742  12.739  51.522
21358W        W13282  18.744  29.729  52.419
21359W        W13283  32.218  30.218  52.419
21360W        W13284  27.717   4.253  52.872
21361W        W13285  43.701  14.766  51.036
21362W        W13286   6.761   3.279  53.355
21363W        W13287  43.192  42.710  53.333
21364W        W13288  11.257  45.201  50.612
21365W        W13289  18.724  36.224  53.325
21366W        W13290   8.774  36.209  49.672
21367W        W13291  18.739   3.758  53.787
21368W        W13292  34.697  25.225  53.358
21369W        W13293  18.742  45.182  50.583
21370W        W13294  30.206  39.228  51.972
21371W        W13295  16.770  43.690  52.417
21372W        W13296  40.194  44.201  50.150
21373W        W13297  37.195  11.254  52.406
21374W        W13298  13.770  36.704  53.774
21375W        W13299  24.228   7.285  50.606
21376W        W13300  42.209  28.730  51.961
21377W        W13301  16.248  29.237  50.597
21378W        W13302  47.704  25.748  51.507
21379W        W13303  25.709   8.260  53.337
21380W        W13304  41.724  44.206  53.809
21381W        W13305   8.738  24.224  49.697
21382W        W13306  47.717   3.755  53.346
21383W        W13307  11.740  19.764  52.406
21384W        W13308  12.776  36.734  51.505
21385W        W13309  14.737  44.719  51.982
21386W        W13310  41.208  46.702  53.339
21387W        W13311  13.264  33.199  53.330
21388W        W13312   8.282  16.254  49.691
21389W        W13313  41.687  25.728  49.676
21390W        W13314  20.753  15.726  50.157
21391W        W13315  13.747  14.271  52.428
21392W        W13316  15.261  11.279  53.333
21393W        W13317  45.707   6.286  53.336
21394W        W13318  37.733  27.731  51.496
21395W        W13319  25.216  39.235  50.617
21396W        W13320   6.242  45.716  50.606
21397W        W13321  15.756  32.240  52.433
21398W        W13322   4.744  16.726  53.326
21399W        W13323  26.746  46.684  51.041
21400W        W13324  30.216  34.700  51.952
21401W        W13325  11.768  39.729  53.323
21402W        W13326  23.248  41.712  51.530
21403W        W13327  31.235  12.278  51.051
21404W        W13328   6.772  26.240  53.786
21405W        W13329  36.196   4.249  51.046
21406W        W13330  40.702  33.218  51.519
21407W        W13331   5.255  25.738  51.981
21408W        W13332   1.750  31.230  51.507
21409W        W13333  11.269   7.263  51.973
21410W        W13334  25.231  41.187  53.815
21411W        W13335  21.242  25.216  52.865
21412W        W13336  34.200  31.203  53.791
21413W        W13337  44.696  33.223  51.051
21414W        W13338  37.694  21.746  51.498
21415W        W13339  41.209  13.770  50.141
21416W        W13340  44.697   9.762  50.577
21417W        W13341   8.754   6.775  53.788
21418W        W13342  33.705  40.186  53.321
21419W        W13343   5.784  41.198  52.883
21420W        W13344  10.737   3.791  50.129
21421W        W13345   9.263  27.707  50.150
21422W        W13346  40.191  19.223  53.338
21423W        W13347  45.215  23.214  51.519
21424W        W13348  47.678   0.253  53.776
21425W        W13349  30.244   4.288  53.775
21426W        W13350  33.743  38.719  50.591
21427W        W13351  18.756  19.222  50.130
21428W        W13352  41.682  18.735  50.612
21429W        W13353  10.244  47.204  51.529
21430W        W13354  30.705   4.763  51.494
21431W        W13355  45.676  23.227  49.694
21432W        W13356  19.730  20.755  50.615
21433W        W13357  10.771  14.270  49.684
21434W        W13358   2.274  43.217  51.077
21435W        W13359  17.721  31.212  51.057
21436W        W13360   9.777  33.221  51.496
21437W        W13361  35.201   6.777  51.505
21438W        W13362  40.218  14.754  51.957
21439W        W13363  32.741   2.772  53.803
21440W        W13364  22.262   8.258  49.692
21441W        W13365  14.766   1.273  52.899
21442W        W13366  28.721  27.213  51.517
21443W        W13367   5.263  26.746  49.667
21444W        W13368  38.692  47.712  50.142
21445W        W13369   5.779  23.722  53.355
21446W        W13370   2.293  29.241  53.324
21447W        W13371  40.685  44.217  49.696
21448W        W13372   4.774  22.230  51.043
21449W        W13373  45.196  33.706  52.424
21450W        W13374  23.261  24.235  53.358
21451W        W13375  35.727  24.233  50.601
21452W        W13376  12.231   2.789  51.043
21453W        W13377  11.748  24.745  51.948
21454W        W13378  43.224  19.727  51.982
21455W        W13379  18.234  22.255  53.784
21456W        W13380  42.681  29.234  51.973
21457W        W13381  11.750  28.218  50.597
21458W        W13382  37.224  20.730  51.953
21459W        W13383  22.227  35.226  51.959
21460W        W13384  44.688   2.773  50.154
21461W        W13385  16.253   9.282  51.050
21462W        W13386  37.695  25.748  50.156
21463W        W13387  23.713  18.727  52.431
21464W        W13388   4.750  33.697  51.518
21465W        W13389  12.770  41.187  51.525
21466W        W13390  25.743  32.696  51.065
21467W        W13391  46.712  12.753  50.583
21468W        W13392  25.754  31.212  52.901
21469W        W13393  22.234  17.268  50.150
21470W        W13394  33.742  20.763  52.406
21471W        W13395  42.182  41.182  52.443
21472W        W13396   6.782  37.235  50.603
21473W        W13397   0.290   5.790  52.894
21474W        W13398  20.743  14.737  52.447
21475W        W13399  41.207  10.258  51.503
21476W        W13400  10.779  13.265  52.443
21477W        W13401  41.695  31.232  51.967
21478W        W13402  18.231   7.777  50.587
21479W        W13403  37.226  43.219  52.874
21480W        W13404  19.219  21.745  53.795
21481W        W13405  36.207  44.210  50.602
21482W        W13406  28.232   2.258  50.616
21483W        W13407  30.227   5.753  51.503
21484W        W13408  32.716  36.195  53.792
21485W        W13409  30.733  38.726  51.955
21486W        W13410   0.287  44.705  52.432
21487W        W13411  14.235   3.293  51.505
21488W        W13412  38.729  10.736  50.157
21489W        W13413  46.202  42.714  51.513
21490W        W13414  21.752   1.284  51.991
21491W        W13415   8.276  27.751  51.980
21492W        W13416  28.709  21.736  50.589
21493W        W13417  37.697  46.174  53.332
21494W        W13418  25.218  30.204  51.967
21495W        W13419  19.245  20.725  49.709
21496W        W13420  34.222  13.732  50.161
21497W        W13421  37.713   3.789  52.424
21498W        W13422  45.691  26.239  51.056
21499W        W13423  41.207  19.739  51.065
21500W        W13424  46.201  18.260  52.901
21501W        W13425   1.772  26.749  49.708
21502W        W13426  41.729  23.730  51.990
21503W        W13427  35.201   5.765  50.586
21504W        W13428  19.753  15.746  49.667
21505W        W13429  18.249  22.724  51.038
21506W        W13430  21.261  14.762  53.791
21507W        W13431  34.237  41.185  51.078
21508W        W13432  32.708  35.739  53.345
21509W        W13433  16.748  42.209  49.707
21510W        W13434  33.733  47.205  53.320
21511W        W13435   7.753  38.206  49.667
21512W        W13436  28.723   9.759  49.709
21513W        W13437  18.252  23.261  53.350
21514W        W13438   0.757  36.240  50.598
21515W        W13439  17.760   9.768  52.868
21516W        W13440  12.744  24.253  51.979
21517W        W13441   1.249  45.180  51.522
21518W        W13442  33.209  23.758  51.957
21519W        W13443  38.188  47.195  53.323
21520W        W13444  28.717  45.677  50.123
21521W        W13445  17.245  19.268  50.140
21522W        W13446  45.693  21.743  51.510
21523W        W13447  30.733   9.767  51.956
21524W        W13448  47.678  40.205  51.073
21525W        W13449  13.740  47.204  49.698
21526W        W13450   7.247  11.267  51.521
21527W        W13451   2.749  32.239  50.622
21528W        W13452  48.207   3.749  52.874
21529W        W13453   8.273   4.769  53.360
21530W        W13454  22.217  15.734  52.869
21531W        W13455  32.697  27.213  53.349
21532W        W13456   9.282  32.737  51.953
21533W        W13457   5.272  29.207  50.587
21534W        W13458  10.767  43.182  49.677
21535W        W13459  14.751   3.788  51.526
21536W        W13460  35.196  44.187  51.982
21537W        W13461  24.252   3.251  49.697
21538W        W13462  13.736  12.234  52.871
21539W        W13463  15.774  28.730  50.131
21540W        W13464  10.251  25.746  49.685
21541W        W13465  36.225  33.227  51.036
21542W        W13466  38.200  29.720  51.036
21543W        W13467   7.252  44.681  51.045
21544W        W13468  32.244  33.732  53.794
21545W        W13469   1.792  42.228  53.331
21546W        W13470  13.233  37.714  52.900
21547W        W13471  26.709   3.771  52.888
21548W        W13472  45.719  13.741  50.132
21549W        W13473   8.745  47.708  53.774
21550W        W13474  28.729  20.762  49.669
21551W        W13475   2.266  16.259  50.602
21552W        W13476   4.248  13.738  52.411
21553W        W13477  45.700  25.257  51.513
21554W        W13478  37.217  27.704  52.419
21555W        W13479  24.217  35.729  52.902
21556W        W13480  30.237  24.251  51.502
21557W        W13481  20.742  17.750  52.866
21558W        W13482  41.698  27.732  51.512
21559W        W13483  45.721  22.241  51.053
21560W        W13484   0.798  29.721  52.429
21561W        W13485  37.193  38.234  52.442
21562W        W13486  38.691   7.287  50.153
21563W        W13487  39.725  38.231  52.425
21564W        W13488  26.744  33.210  50.153
21565W        W13489  41.208  28.220  52.897
21566W        W13490  35.706  30.733  53.780
21567W        W13491  42.226   2.768  53.321
21568W        W13492  12.761   6.765  49.705
21569W        W13493  20.223  32.730  53.349
21570W        W13494   5.249  30.232  50.152
21571W        W13495  45.193  28.741  50.131
21572W        W13496  11.765  13.247  51.054
21573W        W13497  12.261  46.174  52.429
21574W        W13498  40.716  34.708  50.604
21575W        W13499  18.253   7.758  51.519
21576W        W13500  48.209  25.232  51.510
21577W        W13501  21.738  40.188  49.699
21578W        W13502  39.188  19.762  50.146
21579W        W13503  23.716  42.699  51.952
21580W        W13504  36.214  10.279  49.694
21581W        W13505  20.763  40.210  51.984
21582W        W13506   7.756  30.236  49.687
21583W        W13507  35.724  35.226  51.949
21584W        W13508  44.702   3.269  51.981
21585W        W13509  39.210  27.247  51.954
21586W        W13510  45.213  19.745  51.512
21587W        W13511  18.241  34.693  50.605
21588W        W13512  22.263  28.248  52.893
21589W        W13513   4.289  24.713  51.052
21590W        W13514  15.268  36.738  51.495
21591W        W13515  39.699  15.268  53.796
21592W        W13516  38.727  17.236  53.794
21593W        W13517  45.695  16.250  51.988
21594W        W13518  14.745  19.267  53.338
21595W        W13519  20.720  17.751  49.689
21596W        W13520  45.705  11.255  51.066
21597W        W13521  22.250  32.245  51.967
21598W        W13522  30.742  40.709  50.134
21599W        W13523  35.733  38.214  50.127
21600W        W13524  38.190   9.772  53.344
21601W        W13525  47.192   8.253  50.592
21602W        W13526   5.789   2.262  51.961
21603W        W13527  21.736  25.223  49.680
21604W        W13528  40.220   6.250  50.150
21605W        W13529  45.699  46.710  49.695
21606W        W13530  10.248   5.265  53.323
21607W        W13531  11.771  21.244  52.426
21608W        W13532  30.741   6.282  49.666
21609W        W13533  47.702  26.732  51.060
21610W        W13534  45.717   4.768  53.817
21611W        W13535  20.729  14.254  51.527
21612W        W13536  28.748   7.765  53.779
21613W        W13537  15.766  27.208  50.589
21614W        W13538  48.202  41.187  49.708
21615W        W13539  17.254   3.289  53.780
21616W        W13540   6.779  27.206  51.987
21617W        W13541   6.280  38.228  53.787
21618W        W13542  28.242  22.233  52.422
21619W        W13543   0.795   7.278  53.357
21620W        W13544  24.259  19.260  50.163
21621W        W13545  27.751  27.216  50.608
21622W        W13546  24.751  19.227  51.532
21623W        W13547  21.761  25.223  51.986
21624W        W13548  23.727   4.763  50.131
21625W        W13549  38.221   5.790  49.697
21626W        W13550  31.203  20.218  50.164
21627W        W13551  13.249   1.285  51.040
21628W        W13552   4.265  28.706  53.810
21629W        W13553  35.207  30.744  50.582
21630W        W13554   3.760   6.262  50.132
21631W        W13555  11.249  42.190  50.594
21632W        W13556  27.243  39.219  51.514
21633W        W13557  40.184  34.706  52.864
21634W        W13558   0.282  22.218  52.423
21635W        W13559  46.180  45.706  52.413
21636W        W13560  16.769   3.260  53.359
21637W        W13561  22.752   1.254  50.136
21638W        W13562  44.216   8.256  49.671
21639W        W13563   0.780   2.277  51.054
21640W        W13564  19.741  17.770  52.882
21641W        W13565  10.755  16.260  50.154
21642W        W13566  28.704  25.722  52.862
21643W        W13567   5.756  45.685  51.973
21644W        W13568  47.708   3.778  51.533
21645W        W13569  19.233  28.240  50.153
21646W        W13570  29.228  32.704  51.491
21647W        W13571  37.721  33.711  52.881
21648W        W13572  21.246   8.240  52.403
21649W        W13573  39.235  25.236  50.139
21650W        W13574  43.206  34.233  51.535
21651W        W13575   6.252  44.718  51.977
21652W        W13576  45.710  20.224  50.143
21653W        W13577  29.242  34.219  53.322
21654W        W13578  14.769  20.753  52.445
21655W        W13579  27.219   3.273  50.617
21656W        W13580   8.777   0.280  50.603
21657W        W13581  46.178  10.748  49.708
21658W        W13582  24.712  22.745  52.429
21659W        W13583  24.740  45.185  50.129
21660W        W13584  25.736  22.226  50.595
21661W        W13585   5.780  38.218  51.509
21662W        W13586  18.251  47.710  53.359
21663W        W13587  28.718  14.233  53.781
21664W        W13588  31.206  38.703  51.078
21665W        W13589  44.723   7.252  50.594
21666W        W13590  14.760  12.236  50.166
21667W        W13591   4.290   7.288  51.972
21668W        W13592   1.285  17.759  51.978
21669W        W13593  23.750  23.246  52.874
21670W        W13594  40.698   9.764  49.691
21671W        W13595  20.264  21.718  51.522
21672W        W13596  42.207  13.737  52.893
21673W        W13597  20.237  27.742  50.147
21674W        W13598  22.726  30.722  51.517
21675W        W13599   5.277  34.710  51.532
21676W        W13600  45.194   8.266  50.606
21677W        W13601  26.241  44.703  50.584
21678W        W13602  18.245  31.237  52.440
21679W        W13603  41.690  45.716  53.316
21680W        W13604  11.750  24.213  52.895
21681W        W13605  11.764   5.270  51.958
21682W        W13606  27.731  46.680  51.506
21683W        W13607   1.794   5.758  53.801
21684W        W13608  37.198   3.789  50.620
21685W        W13609  17.231  26.718  51.972
21686W        W13610   7.240   3.260  52.445
21687W        W13611  35.711   6.241  49.689
21688W        W13612   2.794   1.767  50.590
21689W        W13613   7.768  30.218  51.065
21690W        W13614  29.718  18.720  51.035
21691W        W13615  44.684   9.735  52.865
21692W        W13616  37.191  32.744  51.947
21693W        W13617   8.749  26.209  52.889
21694W        W13618  44.695  16.239  49.686
21695W        W13619   0.784  17.769  51.520
21696W        W13620  24.733   8.769  51.535
21697W        W13621   2.767  18.245  50.612
21698W        W13622   3.751  13.265  50.581
21699W        W13623  34.736   3.285  51.527
21700W        W13624   0.288  44.726  51.041
21701W        W13625  43.211  17.254  51.527
21702W        W13626  45.691  34.197  50.137
21703W        W13627  37.192   3.281  49.670
21704W        W13628  35.707  29.728  53.359
21705W        W13629  39.691  45.687  50.608
21706W        W13630  16.737  37.723  52.447
21707W        W13631  13.765  28.235  50.163
21708W        W13632  36.194   5.765  53.316
21709W        W13633  16.247  33.709  52.424
21710W        W13634  13.750  14.233  53.802
21711W        W13635   0.264  19.755  53.783
21712W        W13636   6.757  23.234  53.326
21713W        W13637  44.205  28.252  50.585
21714W        W13638   3.256   3.259  51.967
21715W        W13639  39.706   0.297  52.408
21716W        W13640   6.271  46.174  53.337
21717W        W13641   5.284  35.193  51.039
21718W        W13642  30.744  38.733  53.780
21719W        W13643  12.763  34.732  52.900
21720W        W13644   5.754  35.696  50.149
21721W        W13645  20.260   0.763  51.535
21722W        W13646  43.217  14.775  53.338
21723W        W13647  44.699  25.229  50.582
21724W        W13648  15.248  19.725  52.903
21725W        W13649  16.255  41.214  51.034
21726W        W13650  47.175  39.719  53.786
21727W        W13651   7.244  39.216  52.403
21728W        W13652  18.741  38.191  51.505
21729W        W13653  48.177  36.191  50.134
21730W        W13654  36.699  37.722  50.595
21731W        W13655  40.687  36.726  52.881
21732W        W13656  27.733   6.752  52.882
21733W        W13657  11.759  33.216  50.613
21734W        W13658  40.693  24.752  50.607
21735W        W13659  17.736  30.745  50.583
21736W        W13660   0.789   7.283  51.072
21737W        W13661  26.726  11.276  49.700
21738W        W13662  33.241   1.789  52.869
21739W        W13663  17.754  33.714  51.506
21740W        W13664  26.709  35.204  50.124
21741W        W13665  11.252  21.744  52.897
21742W        W13666  17.257  41.692  53.330
21743W        W13667  21.718   3.283  52.423
21744W        W13668  39.694  29.741  53.782
21745W        W13669  27.215  17.755  53.776
21746W        W13670  20.726  27.734  51.967
21747W        W13671  41.712  14.260  51.043
21748W        W13672  17.244   7.286  50.136
21749W        W13673  32.731   3.760  52.439
21750W        W13674  11.254  26.218  50.134
21751W        W13675   5.253  27.209  50.150
21752W        W13676   2.782   2.795  52.893
21753W        W13677   0.789  14.272  52.901
21754W        W13678  19.252  44.186  53.776
21755W        W13679  22.728  14.233  49.698
21756W        W13680  27.238  20.242  49.680
21757W        W13681  27.709   0.786  52.860
21758W        W13682  26.227  25.752  51.504
21759W        W13683  36.238  40.707  53.356
21760W        W13684  47.681  21.753  49.694
21761W        W13685  25.210  26.713  51.505
21762W        W13686  17.736  47.673  53.790
21763W        W13687  30.743   6.260  50.621
21764W        W13688  28.719  41.201  53.332
21765W        W13689  26.710  47.216  52.863
21766W        W13690   6.745  24.238  53.777
21767W        W13691  43.221   8.769  51.963
21768W        W13692  30.233  14.726  53.814
21769W        W13693  34.218  43.211  49.683
21770W        W13694  46.674  44.723  49.670
21771W        W13695   6.750  23.236  51.523
21772W        W13696  41.711  41.686  51.046
21773W        W13697   8.274  47.684  50.592
21774W        W13698  26.216  37.225  52.869
21775W        W13699   7.239   4.279  51.954
21776W        W13700  41.210   0.761  50.621
21777W        W13701  40.732  31.201  53.344
21778W        W13702  14.758   3.294  50.148
21779W        W13703  44.206  20.750  53.814
21780W        W13704  17.248  47.707  50.130
21781W        W13705  26.720  36.715  53.350
21782W        W13706  48.218   7.784  53.359
21783W        W13707  37.238  27.226  51.037
21784W        W13708  38.207   9.251  49.697
21785W        W13709  17.765  39.231  52.440
21786W        W13710  30.709  24.741  52.889
21787W        W13711  31.735  46.199  53.784
21788W        W13712  24.720  34.698  53.816
21789W        W13713  28.219   3.765  52.414
21790W        W13714   3.768  25.250  51.985
21791W        W13715  44.696  47.701  52.869
21792W        W13716  25.232  37.223  53.807
21793W        W13717   2.777  37.208  50.132
21794W        W13718  36.725  31.221  51.039
21795W        W13719  15.235   1.753  49.708
21796W        W13720  40.712   5.762  49.687
21797W        W13721  16.271   1.755  49.672
21798W        W13722  15.234  45.215  50.157
21799W        W13723  28.227  47.711  51.056
21800W        W13724  41.207  44.227  49.697
21801W        W13725  35.241  25.731  53.320
21802W        W13726  30.727  25.223  50.585
21803W        W13727  37.732  11.743  53.800
21804W        W13728  30.218  18.260  52.406
21805W        W13729  43.199   3.286  51.051
21806W        W13730   1.250  14.756  52.420
21807W        W13731  16.749   9.775  51.050
21808W        W13732  11.757  14.745  51.516
21809W        W13733  30.701  30.213  53.790
21810W        W13734  28.247  13.267  52.444
21811W        W13735   3.288  40.726  52.432
21812W        W13736  22.252   6.763  49.707
21813W        W13737   8.237  35.724  51.975
21814W        W13738  30.742  47.701  53.777
21815W        W13739  40.205   6.786  52.863
21816W        W13740  26.209  13.744  51.975
21817W        W13741   3.275  27.738  51.034
21818W        W13742   2.769  29.742  51.053
21819W        W13743  19.230  34.706  53.801
21820W        W13744  39.227  11.266  53.811
21821W        W13745   4.756  11.731  50.612
21822W        W13746  35.737  22.733  51.956
21823W        W13747  11.768  35.738  49.703
21824W        W13748  21.736  41.216  53.350
21825W        W13749  47.215  45.681  50.612
21826W        W13750  40.714   1.795  51.036
21827W        W13751   2.789   2.274  52.442
21828W        W13752   8.774   9.242  51.527
21829W        W13753   0.796  18.736  50.599
21830W        W13754  29.704   9.765  50.123
21831W        W13755  31.710  45.215  51.068
21832W        W13756  19.234   0.287  51.514
21833W        W13757  45.190  21.220  53.344
21834W        W13758  47.213  18.739  51.973
21835W        W13759  39.230  26.741  51.034
21836W        W13760   4.767   5.766  51.055
21837W        W13761   8.749   2.757  51.507
21838W        W13762  23.213   2.756  50.138
21839W        W13763  32.240  33.219  49.681
21840W        W13764  11.762  38.695  53.360
21841W        W13765  37.236  31.717  52.874
21842W        W13766  26.242  30.745  52.441
21843W        W13767  22.732  13.244  51.510
21844W        W13768  16.247  35.236  50.151
21845W        W13769  27.225  36.228  53.348
21846W        W13770  23.222   9.772  53.811
21847W        W13771  45.225  47.220  50.597
21848W        W13772   1.787  44.221  50.596
21849W        W13773  34.215  28.229  51.061
21850W        W13774  21.745  48.185  51.065
21851W        W13775  26.710   3.246  51.529
21852W        W13776  19.236  13.763  52.411
21853W        W13777  22.723   9.246  51.959
21854W        W13778  12.779   8.742  53.791
21855W        W13779  14.241  26.749  52.432
21856W        W13780   4.764  19.726  50.618
21857W        W13781   7.281  25.715  52.881
21858W        W13782  11.279  20.230  51.984
21859W        W13783   4.762  10.745  49.695
21860W        W13784   0.789  39.202  50.619
21861W        W13785  33.242  20.756  49.672
21862W        W13786   5.784  36.715  49.686
21863W        W13787  16.755   2.255  49.709
21864W        W13788   2.290  48.199  50.589
21865W        W13789   5.286  30.236  51.035
21866W        W13790  32.715   0.254  53.810
21867W        W13791  24.225  19.736  51.503
21868W        W13792   3.283  14.268  51.493
21869W        W13793   8.285  39.208  52.426
21870W        W13794  18.724  34.194  53.331
21871W        W13795  15.238  34.742  51.059
21872W        W13796  29.741  34.198  50.605
21873W        W13797  36.191  17.746  50.617
21874W        W13798   0.787  11.273  51.954
21875W        W13799  11.765  40.219  50.121
21876W        W13800  38.188  22.747  51.072
21877W        W13801  18.729  24.247  50.159
21878W        W13802  40.191  32.203  53.779
21879W        W13803  34.243  45.201  51.517
21880W        W13804  28.234  27.207  51.518
21881W        W13805  29.733   4.788  50.600
21882W        W13806  45.694   9.759  52.862
21883W        W13807  25.244   0.758  52.403
21884W        W13808   4.280  17.225  51.075
21885W        W13809  36.701   6.268  50.134
21886W        W13810  17.234  32.205  51.054
21887W        W13811  20.735  34.206  53.785
21888W        W13812  40.190  30.717  50.156
21889W        W13813  48.178  29.250  53.338
21890W        W13814  37.235  20.729  52.411
21891W        W13815   0.297  34.200  51.079
21892W        W13816  34.740  47.222  53.807
21893W        W13817  11.756  21.242  51.971
21894W        W13818  12.732  47.183  49.678
21895W        W13819  10.742   5.753  49.697
21896W        W13820  39.198  19.731  49.690
21897W        W13821   3.246   9.257  51.046
21898W        W13822  26.216   2.780  50.124
21899W        W13823  47.719  40.687  52.862
21900W        W13824  34.227   2.294  53.789
21901W        W13825   5.278  31.229  52.416
21902W        W13826   5.760   8.240  49.705
21903W        W13827  27.243  42.202  53.355
21904W        W13828   4.263  40.220  51.964
21905W        W13829  36.737  19.235  53.330
21906W        W13830  43.685  40.686  52.410
21907W        W13831   0.299  17.247  50.143
21908W        W13832  30.204  12.256  53.340
21909W        W13833  11.239  34.212  52.900
21910W        W13834  37.210  25.231  49.698
21911W        W13835  16.750  29.743  50.147
21912W        W13836  35.226   3.265  51.947
21913W        W13837  34.703   6.740  50.587
21914W        W13838   5.276  41.727  51.498
21915W        W13839  42.211  38.212  53.814
21916W        W13840  34.707  30.747  50.605
21917W        W13841  29.233  12.776  50.166
21918W        W13842  14.252  23.747  52.406
21919W        W13843  35.222  42.217  51.512
21920W        W13844  10.778  12.236  53.356
21921W        W13845  27.742  31.716  49.699
21922W        W13846  27.741   7.750  53.811
21923W        W13847  39.689  32.716  50.603
21924W        W13848  20.722  43.187  53.331
21925W        W13849  19.264  45.182  52.412
21926W        W13850   6.779  25.228  50.588
21927W        W13851  39.711  42.199  51.493
21928W        W13852  30.218  32.723  53.339
21929W        W13853  28.727  33.226  53.774
21930W        W13854  10.246  42.689  50.586
21931W        W13855  11.269  15.258  51.063
21932W        W13856   7.252  25.726  50.156
21933W        W13857  27.706  34.710  53.794
21934W        W13858  18.728  42.687  49.677
21935W        W13859   6.788  12.773  51.066
21936W        W13860  29.242  31.728  52.426
21937W        W13861  11.747  37.703  52.448
21938W        W13862   1.249  13.255  52.883
21939W        W13863  37.189  32.215  51.529
21940W        W13864  19.718  22.259  50.579
21941W        W13865  17.769   8.279  51.531
21942W        W13866  11.763  42.725  51.988
21943W        W13867  18.257   7.770  51.048
21944W        W13868  45.683  30.205  52.877
21945W        W13869  19.729  21.754  53.777
21946W        W13870  28.240  29.251  53.347
21947W        W13871  36.230  33.198  50.138
21948W        W13872  46.175  23.747  52.439
21949W        W13873  25.257  47.697  52.427
21950W        W13874  29.213   0.786  50.602
21951W        W13875  36.725  45.197  50.615
21952W        W13876   9.249  33.220  52.439
21953W        W13877  26.727  27.207  52.413
21954W        W13878   9.783   6.773  52.407
21955W        W13879  24.256  29.727  53.360
21956W        W13880  35.227  46.721  52.876
21957W        W13881  47.688  26.234  51.072
21958W        W13882  17.237   2.287  51.499
21959W        W13883  12.733  14.755  49.698
21960W        W13884   6.276  35.227  52.903
21961W        W13885   1.755   9.235  50.584
21962W        W13886  13.774   4.787  51.058
21963W        W13887  24.754  38.699  51.954
21964W        W13888   9.755  14.242  52.872
21965W        W13889  45.176  30.232  52.878
21966W        W13890   6.258  12.238  51.976
21967W        W13891   4.782  17.256  51.523
21968W        W13892  38.700   5.272  52.884
21969W        W13893  16.752  32.241  53.342
21970W        W13894  46.722  44.197  51.960
21971W        W13895  39.716  39.199  53.336
21972W        W13896   4.251   1.750  53.361
21973W        W13897  48.192   9.750  52.428
21974W        W13898  37.720  38.230  53.342
21975W        W13899  30.239  25.738  53.351
21976W        W13900  17.263  23.738  53.811
21977W        W13901  14.770   9.749  51.947
21978W        W13902  38.219  12.272  50.584
21979W        W13903  22.736  35.222  50.582
21980W        W13904  15.764  10.254  52.874
21981W        W13905  47.205  23.743  51.532
21982W        W13906  31.722  30.705  49.689
21983W        W13907  41.191  11.256  50.597
21984W        W13908  23.248  39.226  51.055
21985W        W13909  43.211  48.190  53.783
21986W        W13910  18.735   7.753  51.989
21987W        W13911   4.749  26.728  53.773
21988W        W13912  30.241  34.242  51.044
21989W        W13913  42.202  43.181  52.864
21990W        W13914  34.204  17.241  52.861
21991W        W13915  17.244  31.201  49.681
21992W        W13916  11.269  27.229  49.696
21993W        W13917  41.216  32.728  51.978
21994W        W13918  10.266  15.748  51.063
21995W        W13919  31.743  15.745  50.122
21996W        W13920  28.245  23.742  51.057
21997W        W13921   3.271  23.242  52.882
21998W        W13922  19.261  23.257  51.531
21999W        W13923  36.727  16.751  51.953
22000W        W13924  35.707  17.247  53.800
22001W        W13925  12.776   2.282  53.816
22002W        W13926  15.766  31.224  51.060
22003W        W13927  26.214   0.798  52.894
22004W        W13928  29.226  43.226  50.586
22005W        W13929  48.178  20.758  50.588
22006W        W13930  22.256  20.232  51.498
22007W        W13931  25.249  32.230  53.775
22008W        W13932  34.229  44.712  52.403
22009W        W13933  13.770   0.258  50.596
22010W        W13934  22.258  47.207  53.797
22011W        W13935   3.747  28.721  51.521
22012W        W13936   7.757  46.690  49.695
22013W        W13937  26.215  15.261  50.621
22014W        W13938  33.707  48.184  53.332
22015W        W13939  19.761  12.749  52.886
22016W        W13940   9.754  14.235  51.060
22017W        W13941   6.780  14.754  52.408
22018W        W13942   2.252   4.747  50.149
22019W        W13943  23.240  42.691  52.899
22020W        W13944   9.737  26.241  51.504
22021W        W13945  45.711  37.701  51.947
22022W        W13946  39.231  33.713  51.495
22023W        W13947  42.697  10.269  52.902
22024W        W13948   7.270  29.245  50.134
22025W        W13949  25.721   1.274  51.950
22026W        W13950  41.231  24.712  52.413
22027W        W13951  44.709  31.208  53.778
22028W        W13952  22.238  14.750  51.049
22029W        W13953   7.267  34.202  50.158
22030W        W13954  20.220  45.700  53.340
22031W        W13955  17.226   7.740  52.439
22032W        W13956   2.792  23.227  52.887
22033W        W13957  41.694  26.714  53.779
22034W        W13958  29.737  31.726  51.494
22035W        W13959  18.234  28.729  51.957
22036W        W13960   8.785   2.782  50.593
22037W        W13961  30.230   2.781  51.970
22038W        W13962   4.751  10.241  53.361
22039W        W13963  36.228  36.736  53.338
22040W        W13964  11.756  19.255  52.435
22041W        W13965  23.217  42.691  50.155
22042W        W13966  14.241  14.251  50.606
22043W        W13967  15.259  41.728  53.337
22044W        W13968  29.240  21.761  52.438
22045W        W13969  43.211   4.752  49.695
22046W        W13970  36.710  33.703  53.319
22047W        W13971   7.758  23.214  51.042
22048W        W13972  14.232  42.229  49.675
22049W        W13973  34.743  41.721  52.890
22050W        W13974  34.233  10.255  50.602
22051W        W13975  31.223  29.251  51.990
22052W        W13976  42.707  27.725  50.154
22053W        W13977  43.219  45.180  53.807
22054W        W13978  17.256  42.214  50.155
22055W        W13979  21.233   4.271  51.511
22056W        W13980  19.732  42.204  53.348
22057W        W13981   0.289   7.744  49.685
22058W        W13982  20.730  39.230  52.443
22059W        W13983   1.269  44.193  51.964
22060W        W13984  15.234  33.729  50.580
22061W        W13985  46.206  27.710  52.866
22062W        W13986  37.730  15.727  51.529
22063W        W13987  32.198  30.223  50.124
22064W        W13988  35.206  38.225  51.511
22065W        W13989  47.683  30.716  49.686
22066W        W13990   0.754  31.742  51.035
22067W        W13991  28.243  40.207  51.060
22068W        W13992  34.231  39.713  51.075
22069W        W13993  47.177  21.240  51.039
22070W        W13994  11.748   1.789  51.954
22071W        W13995  19.756  46.205  52.905
22072W        W13996   2.258  38.735  52.860
22073W        W13997  16.269  40.196  52.416
22074W        W13998  27.749  30.701  51.055
22075W        W13999  28.242  12.248  51.947
22076W        W14000   5.788  14.261  49.696
22077W        W14001  22.756   1.765  52.447
22078W        W14002   0.285   5.289  51.070
22079W        W14003  13.761  22.247  50.579
22080W        W14004  17.246  41.700  53.780
22081W        W14005  12.735  45.718  50.610
22082W        W14006  45.186  42.203  52.862
22083W        W14007  28.238   0.286  50.160
22084W        W14008   5.242   0.270  51.959
22085W        W14009  27.744  29.708  53.360
22086W        W14010  22.744  15.253  49.671
22087W        W14011  24.228  31.222  49.702
22088W        W14012  34.230  37.736  49.675
22089W        W14013  34.215  40.708  52.430
22090W        W14014  16.235   7.773  51.509
22091W        W14015  11.260  21.736  53.330
22092W        W14016   7.262   9.244  51.988
22093W        W14017  39.727   5.772  51.049
22094W        W14018  21.742  42.212  53.330
22095W        W14019   7.281  19.252  49.684
22096W        W14020  35.202  23.741  53.779
22097W        W14021  22.237  32.697  50.584
22098W        W14022  39.733  43.727  52.411
22099W        W14023  48.207  17.737  53.810
22100W        W14024   4.252   8.263  49.679
22101W        W14025  35.236  32.736  50.142
22102W        W14026  33.220  14.746  53.784
22103W        W14027  18.265  33.208  53.342
22104W        W14028   7.245   1.786  51.508
22105W        W14029  18.239  45.177  49.684
22106W        W14030   7.761  43.707  52.424
22107W        W14031   6.755   7.253  51.048
22108W        W14032  32.198   3.268  51.505
22109W        W14033  29.238  38.231  50.155
22110W        W14034  45.215   0.296  51.525
22111W        W14035   3.755   9.779  53.337
22112W        W14036  17.768  24.254  49.708
22113W        W14037   0.782   9.267  52.432
22114W        W14038  23.250   4.288  51.985
22115W        W14039  48.201   4.251  51.521
22116W        W14040  24.220  32.245  53.788
22117W        W14041  38.695  14.734  50.137
22118W        W14042  31.734   4.784  51.973
22119W        W14043   9.252  43.712  53.782
22120W        W14044  40.687  25.211  50.591
22121W        W14045  27.223  18.725  53.797
22122W        W14046  47.708  39.714  50.615
22123W        W14047  35.199  18.221  52.426
22124W        W14048   4.777   6.261  52.904
22125W        W14049  26.718  32.710  50.587
22126W        W14050  43.686  39.733  51.520
22127W        W14051  15.730  14.774  53.359
22128W        W14052  14.247   3.776  49.706
22129W        W14053  37.721  34.725  50.609
22130W        W14054  39.194  46.717  51.528
22131W        W14055  21.751  40.726  51.066
22132W        W14056  35.208   7.739  51.041
22133W        W14057  37.211  33.706  51.989
22134W        W14058  40.205  43.714  51.501
22135W        W14059  17.742   0.782  51.521
22136W        W14060  27.737  23.248  51.051
22137W        W14061   2.255  39.690  50.599
22138W        W14062  41.698  25.728  51.521
22139W        W14063   1.291   8.284  49.702
22140W        W14064   6.775  31.236  53.340
22141W        W14065  37.710  31.717  50.136
22142W        W14066  42.704  22.724  49.694
22143W        W14067  13.245  28.716  50.613
22144W        W14068  23.253  15.250  52.879
22145W        W14069   4.277  27.734  51.513
22146W        W14070   8.243  15.274  51.494
22147W        W14071   7.744  12.255  49.672
22148W        W14072   6.788  39.691  50.157
22149W        W14073   7.240  41.204  50.126
22150W        W14074  43.188  10.238  52.893
22151W        W14075  13.746  38.704  52.438
22152W        W14076   7.287   6.743  50.616
22153W        W14077  31.712  23.260  51.042
22154W        W14078  14.263  37.690  51.962
22155W        W14079   7.764   4.287  53.807
22156W        W14080   4.252   1.255  51.049
22157W        W14081  31.722  13.270  51.531
22158W        W14082  38.236  19.737  51.520
22159W        W14083  36.724  26.746  53.780
22160W        W14084   7.283  44.194  52.890
22161W        W14085  18.223  39.731  51.516
22162W        W14086  41.710  21.261  52.869
22163W        W14087   9.243  42.202  51.518
22164W        W14088  42.693  35.230  49.684
22165W        W14089  29.247  16.772  50.587
22166W        W14090   6.777   7.772  52.436
22167W        W14091  24.732  46.174  52.421
22168W        W14092  22.217  16.240  49.670
22169W        W14093   5.269  20.220  51.053
22170W        W14094  12.745  22.745  50.128
22171W        W14095   6.777  48.191  53.341
22172W        W14096  20.241  10.775  51.050
22173W        W14097  26.242  29.225  49.703
22174W        W14098  22.757  30.237  50.137
22175W        W14099  38.201  46.715  53.320
22176W        W14100  33.243  27.722  49.693
22177W        W14101  31.223  18.253  53.803
22178W        W14102   5.269  44.683  50.131
22179W        W14103  32.238  30.238  52.880
22180W        W14104   5.773  16.764  52.895
22181W        W14105   1.795   4.790  50.622
22182W        W14106   7.779   6.274  50.134
22183W        W14107   7.247  28.713  52.891
22184W        W14108  16.748  10.271  50.164
22185W        W14109   5.260  43.197  50.139
22186W        W14110   5.274  21.224  51.067
22187W        W14111  39.709   3.272  51.520
22188W        W14112  28.720  32.699  49.710
22189W        W14113  31.724   1.279  49.671
22190W        W14114   5.760  11.759  52.902
22191W        W14115  45.685  31.703  50.601
22192W        W14116   4.249  31.236  52.889
22193W        W14117  13.749  11.741  50.135
22194W        W14118  32.743  34.236  53.354
22195W        W14119  35.730  29.209  53.783
22196W        W14120  11.745   2.778  53.358
22197W        W14121   4.291  35.226  52.889
22198W        W14122  10.237  31.733  50.582
22199W        W14123  39.228  25.738  52.903
22200W        W14124  25.231  45.709  52.902
22201W        W14125  44.214   7.273  53.351
22202W        W14126  36.206  31.229  49.694
22203W        W14127   6.785  45.210  52.880
22204W        W14128  25.708   8.740  51.505
22205W        W14129   1.766   4.785  51.960
22206W        W14130  23.226  44.714  51.530
22207W        W14131   6.745   6.740  51.530
22208W        W14132   3.252  39.723  50.585
22209W        W14133  26.732  26.216  52.436
22210W        W14134  32.699  45.719  49.682
22211W        W14135  43.181  33.717  51.533
22212W        W14136  36.203  23.219  52.886
22213W        W14137   1.791  25.223  49.704
22214W        W14138  26.727  28.242  51.972
22215W        W14139  29.706   7.784  49.695
22216W        W14140  25.242  47.700  50.602
22217W        W14141   5.756   6.255  49.674
22218W        W14142  14.753  35.211  50.150
22219W        W14143  13.245   6.769  50.127
22220W        W14144   5.245  42.729  51.505
22221W        W14145  38.218   5.251  52.442
22222W        W14146  17.761  14.759  49.668
22223W        W14147  37.725  17.764  50.586
22224W        W14148   6.775  35.214  52.898
22225W        W14149  18.733  33.742  51.058
22226W        W14150  18.733  30.230  51.050
22227W        W14151  23.743  13.742  50.610
22228W        W14152   5.772  41.215  53.788
22229W        W14153   6.243  39.227  53.330
22230W        W14154  39.191  43.703  52.444
22231W        W14155   3.774  47.180  53.783
22232W        W14156  31.223   6.253  51.070
22233W        W14157  28.719  40.213  52.885
22234W        W14158  26.756  24.741  52.899
22235W        W14159  28.703  12.729  50.132
22236W        W14160  12.266   3.755  52.436
22237W        W14161   5.250  43.213  51.985
22238W        W14162  23.736  14.741  51.490
22239W        W14163  15.241  40.224  52.405
22240W        W14164  19.755  41.207  53.792
22241W        W14165   4.781  36.229  51.951
22242W        W14166  43.708  28.227  51.496
22243W        W14167  38.686   7.738  50.153
22244W        W14168  36.695  33.722  52.411
22245W        W14169   3.786  24.244  53.812
22246W        W14170  27.705  36.205  51.987
22247W        W14171  28.705  23.217  49.668
22248W        W14172  19.258  22.214  52.893
22249W        W14173  44.184  35.228  51.969
22250W        W14174  26.718  30.739  53.772
22251W        W14175  42.691  31.205  51.991
22252W        W14176  41.707  17.755  53.781
22253W        W14177  14.741  27.728  51.056
22254W        W14178  20.723  14.739  53.777
22255W        W14179  33.709  27.214  52.891
22256W        W14180  21.219  11.731  51.960
22257W        W14181  43.189  36.197  52.439
22258W        W14182  35.705  29.221  50.143
22259W        W14183  13.751  19.237  50.137
22260W        W14184  32.198  10.242  53.351
22261W        W14185  30.230  26.213  50.618
22262W        W14186  22.259  47.696  53.320
22263W        W14187  17.241  48.219  50.585
22264W        W14188  47.720  22.716  53.797
22265W        W14189  34.220  38.228  51.518
22266W        W14190   7.279  44.213  53.357
22267W        W14191   3.785   2.258  49.682
22268W        W14192   8.255   7.261  49.690
22269W        W14193  16.730  38.214  53.350
22270W        W14194  31.720   5.744  51.061
22271W        W14195   0.272  12.263  50.128
22272W        W14196  41.717  17.244  53.773
22273W        W14197  33.218   3.245  50.149
22274W        W14198  20.217  24.718  50.610
22275W        W14199   7.243   7.748  51.965
22276W        W14200  40.216  12.234  51.068
22277W        W14201  27.249  44.692  51.505
22278W        W14202   0.788  47.174  52.879
22279W        W14203  16.723  35.726  50.128
22280W        W14204   0.775  34.207  50.159
22281W        W14205  18.240  21.229  53.800
22282W        W14206  34.729   0.773  53.355
22283W        W14207  34.220   9.270  53.339
22284W        W14208  10.740  26.228  53.788
22285W        W14209  21.733   3.770  51.971
22286W        W14210  34.741  18.222  51.514
22287W        W14211  23.260  36.703  50.144
22288W        W14212  39.221  26.745  51.509
22289W        W14213  35.724  43.207  51.958
22290W        W14214  43.206  45.224  50.143
22291W        W14215  32.233   9.737  51.047
22292W        W14216  41.712  15.257  51.511
22293W        W14217  29.249   3.262  51.058
22294W        W14218  40.722  15.732  50.128
22295W        W14219   4.764  38.207  53.319
22296W        W14220  38.729  33.232  52.441
22297W        W14221   2.253  47.717  53.796
22298W        W14222  19.256  24.713  50.605
22299W        W14223  44.184  20.236  50.133
22300W        W14224  46.675   3.749  49.680
22301W        W14225  41.223   8.746  49.689
22302W        W14226  32.715  42.712  49.667
22303W        W14227   0.785  21.225  53.779
22304W        W14228  40.223  33.722  49.708
22305W        W14229  17.735  22.253  53.790
22306W        W14230   7.768  34.713  50.611
22307W        W14231  40.696  17.233  53.789
22308W        W14232  33.222   6.244  53.812
22309W        W14233  17.737  25.208  53.328
22310W        W14234  29.234  41.713  50.166
22311W        W14235   4.753  10.749  53.317
22312W        W14236   3.291  12.762  52.880
22313W        W14237  29.248  33.230  53.352
22314W        W14238  38.227   4.763  53.331
22315W        W14239  48.194  21.733  51.987
22316W        W14240  16.267   6.749  53.792
22317W        W14241  45.218  37.697  52.902
22318W        W14242  46.212  29.704  52.863
22319W        W14243  35.735  45.690  53.779
22320W        W14244  32.713  28.248  50.602
22321W        W14245  24.256   1.755  52.879
22322W        W14246  30.722  34.228  51.512
22323W        W14247   1.763  47.181  52.901
22324W        W14248   4.284  31.223  50.577
22325W        W14249   7.254  39.199  50.127
22326W        W14250  29.715  38.726  52.902
22327W        W14251   1.772  47.208  49.674
22328W        W14252  40.204  23.752  51.987
22329W        W14253  36.694  42.704  51.963
22330W        W14254  48.200  36.695  52.861
22331W        W14255  46.678  19.725  52.446
22332W        W14256  46.691   7.241  52.861
22333W        W14257  10.266  17.725  53.808
22334W        W14258  17.225  42.185  51.520
22335W        W14259  27.753  13.751  51.037
22336W        W14260  12.760   5.260  49.665
22337W        W14261  40.233  24.231  50.157
22338W        W14262  38.735   4.264  52.862
22339W        W14263  47.184  39.711  50.614
22340W        W14264  40.732  18.241  51.491
22341W        W14265  35.241  10.742  51.535
22342W        W14266  17.767   0.251  53.350
22343W        W14267  25.750  33.226  53.334
22344W        W14268   5.770  44.223  51.990
22345W        W14269  34.224   0.759  51.498
22346W        W14270  42.187  27.237  51.037
22347W        W14271  32.225   6.760  50.152
22348W        W14272  41.220  32.711  51.519
22349W        W14273   6.752  38.196  52.427
22350W        W14274  43.684  18.243  53.320
22351W        W14275  11.760  21.223  51.041
22352W        W14276   8.253  28.232  50.586
22353W        W14277   6.254  25.722  49.706
22354W        W14278   1.749  35.234  53.804
22355W        W14279  20.243   8.263  51.981
22356W        W14280   5.776  13.267  49.673
22357W        W14281  36.699  13.273  53.796
22358W        W14282  13.746  16.272  52.880
22359W        W14283  23.255  33.696  50.591
22360W        W14284  47.221   3.790  51.949
22361W        W14285  30.728  10.246  51.072
22362W        W14286  40.702  35.723  50.600
22363W        W14287  22.226  30.723  51.979
22364W        W14288  27.723  46.716  49.667
22365W        W14289  17.758   5.753  51.061
22366W        W14290  38.732   4.769  50.584
22367W        W14291  42.197  37.223  53.354
22368W        W14292  21.755  35.698  49.694
22369W        W14293  43.685  43.222  53.329
22370W        W14294  21.216   1.284  53.349
22371W        W14295   3.769   6.775  50.151
22372W        W14296  17.240  16.728  52.417
22373W        W14297  48.196   9.271  51.526
22374W        W14298  14.766   2.762  53.792
22375W        W14299   1.771   9.258  52.880
22376W        W14300  26.708   7.762  53.799
22377W        W14301  18.232  18.740  51.042
22378W        W14302  14.248  23.237  51.512
22379W        W14303  40.703  32.227  50.578
22380W        W14304  23.741  11.254  51.042
22381W        W14305  22.758  13.736  53.324
22382W        W14306  18.731  38.192  51.980
22383W        W14307   1.782   4.263  51.497
22384W        W14308  25.250  47.700  51.959
22385W        W14309  31.229   1.783  50.132
22386W        W14310  42.691  43.185  51.068
22387W        W14311   6.279  12.752  51.528
22388W        W14312   8.756   7.278  53.792
22389W        W14313  28.209  24.739  50.621
22390W        W14314  18.251  22.743  50.159
22391W        W14315  24.245   4.249  51.045
22392W        W14316   4.779  28.728  53.320
22393W        W14317  31.745  12.773  51.523
22394W        W14318  21.747  14.736  52.875
22395W        W14319  30.207  19.232  52.440
22396W        W14320  42.715  37.699  50.124
22397W        W14321   0.260  14.730  49.692
22398W        W14322   9.771  40.697  52.421
22399W        W14323  37.234  15.246  51.498
22400W        W14324   2.248  19.760  50.598
22401W        W14325  11.275  17.267  53.816
22402W        W14326  27.753  17.246  51.034
22403W        W14327   4.259  27.216  53.778
22404W        W14328   2.758  44.725  51.058
22405W        W14329   0.284  33.207  50.136
22406W        W14330  27.711  12.731  51.987
22407W        W14331  18.234  32.706  51.047
22408W        W14332  11.773  24.218  49.693
22409W        W14333   2.281  28.240  51.961
22410W        W14334  43.681  25.229  51.974
22411W        W14335  32.243  26.707  53.777
22412W        W14336  42.729   1.758  53.775
22413W        W14337  34.725  15.727  51.985
22414W        W14338   4.764  47.183  53.787
22415W        W14339  14.751  13.741  51.073
22416W        W14340   2.782  16.751  51.057
22417W        W14341  44.719  38.189  53.791
22418W        W14342  31.727   6.269  53.355
22419W        W14343  16.771  25.211  50.132
22420W        W14344  13.232   5.250  51.048
22421W        W14345   7.749  30.211  52.864
22422W        W14346   7.279  28.705  50.584
22423W        W14347  42.211  44.718  50.619
22424W        W14348   0.260  19.230  51.521
22425W        W14349  23.748  40.688  53.808
22426W        W14350   3.282  41.693  51.496
22427W        W14351  34.697  46.201  50.137
22428W        W14352  12.735  19.248  51.950
22429W        W14353  23.718  41.211  53.775
22430W        W14354  40.197   2.786  49.694
22431W        W14355  40.713  39.702  51.513
22432W        W14356  41.208   3.758  53.316
22433W        W14357  16.745  47.699  51.045
22434W        W14358  41.709  29.230  50.123
22435W        W14359   0.262  19.735  53.325
22436W        W14360   5.754  22.256  50.609
22437W        W14361  41.695  20.263  50.166
22438W        W14362   1.777  36.714  51.948
22439W        W14363  10.736  31.216  50.591
22440W        W14364  46.198  14.233  51.074
22441W        W14365  32.716  25.739  53.324
22442W        W14366   0.258  31.741  51.495
22443W        W14367   0.760  44.179  53.337
22444W        W14368  10.741  17.725  50.588
22445W        W14369  16.734  11.241  50.130
22446W        W14370  46.204  29.724  50.166
22447W        W14371  36.724   3.270  51.960
22448W        W14372  14.275  37.708  50.595
22449W        W14373  24.258  12.246  51.071
22450W        W14374  19.236  42.204  53.328
22451W        W14375  33.242  38.192  53.780
22452W        W14376  16.762  31.224  53.796
22453W        W14377  48.200  23.737  50.153
22454W        W14378  37.706   4.745  51.508
22455W        W14379   3.772   7.266  52.900
22456W        W14380  24.747  36.737  53.344
22457W        W14381  34.205  35.237  50.140
22458W        W14382  15.730   0.796  52.424
22459W        W14383  31.730  23.742  52.415
22460W        W14384   8.260  42.209  49.685
22461W        W14385  39.719  39.725  50.157
22462W        W14386  14.743  19.732  53.347
22463W        W14387  27.736  26.709  53.794
22464W        W14388  36.193   6.739  52.411
22465W        W14389  41.730  48.194  51.971
22466W        W14390  21.736  38.704  51.510
22467W        W14391   2.272  23.718  53.805
22468W        W14392  28.714  32.698  51.968
22469W        W14393   8.240   0.751  53.793
22470W        W14394  33.209  37.720  49.708
22471W        W14395  30.746  20.230  51.958
22472W        W14396   9.254   4.277  52.410
22473W        W14397   1.255  10.747  53.781
22474W        W14398  46.195   3.279  51.073
22475W        W14399  21.723  10.755  53.791
22476W        W14400   0.792  34.740  50.162
22477W        W14401  38.691  33.732  51.491
22478W        W14402   4.764  30.247  52.436
22479W        W14403  15.240  21.246  52.412
22480W        W14404   7.284  46.178  49.670
22481W        W14405  26.731  40.725  49.670
22482W        W14406  11.244  21.750  50.164
22483W        W14407  48.216  27.745  53.779
22484W        W14408  45.199  37.705  51.959
22485W        W14409  24.245  33.732  49.665
22486W        W14410  23.722   5.777  52.417
22487W        W14411  18.234   5.753  51.072
22488W        W14412   5.768  45.697  50.149
22489W        W14413  46.714  18.247  49.671
22490W        W14414  17.758  40.696  50.598
22491W        W14415  24.753  30.219  50.146
22492W        W14416  31.713  13.263  49.690
22493W        W14417   3.247  10.277  52.892
22494W        W14418  38.226   0.772  51.494
22495W        W14419   3.249   4.278  49.675
22496W        W14420  39.210  42.201  53.359
22497W        W14421   4.281  25.252  50.605
22498W        W14422  19.249  25.755  52.445
22499W        W14423  48.188  38.719  51.054
22500W        W14424  13.737  47.715  53.811
22501W        W14425  20.724  32.240  50.622
22502W        W14426  31.202  30.739  53.316
22503W        W14427  25.715  31.698  49.676
22504W        W14428  25.740  22.237  53.815
22505W        W14429  41.218  16.751  50.144
22506W        W14430  34.202  36.706  52.887
22507W        W14431  27.747  37.718  52.412
22508W        W14432  32.736  17.744  53.333
22509W        W14433  42.203  36.200  53.793
22510W        W14434  24.738  47.675  53.329
22511W        W14435  30.245  33.224  51.060
22512W        W14436  33.238  15.767  50.598
22513W        W14437  19.739   1.762  51.075
22514W        W14438  16.724  33.212  51.530
22515W        W14439  37.724  36.720  51.050
22516W        W14440  43.718  43.686  52.902
22517W        W14441  48.191  19.222  51.068
22518W        W14442  25.734  22.716  53.783
22519W        W14443  31.714  31.746  52.403
22520W        W14444  11.247  38.724  50.601
22521W        W14445  33.244  12.767  53.351
22522W        W14446   2.266  33.714  51.531
22523W        W14447  32.235  48.176  53.812
22524W        W14448  45.197  22.253  51.991
22525W        W14449  26.748  20.722  50.155
22526W        W14450  31.233   4.758  50.578
22527W        W14451   4.287  45.195  50.584
22528W        W14452  45.685   6.777  52.417
22529W        W14453  22.715  43.188  53.332
22530W        W14454  48.215  46.221  52.407
22531W        W14455  46.710  43.196  51.054
22532W        W14456   3.789  27.244  52.891
22533W        W14457  19.231   0.759  51.974
22534W        W14458   7.284  37.712  52.425
22535W        W14459  25.257  31.721  52.899
22536W        W14460  28.209  33.734  51.513
22537W        W14461  18.258  46.190  50.583
22538W        W14462  39.732  30.738  50.618
22539W        W14463  39.205   9.755  50.615
22540W        W14464  17.765  43.685  50.600
22541W        W14465   8.238  20.235  49.678
22542W        W14466   7.777   2.780  52.871
22543W        W14467  37.212  48.192  52.422
22544W        W14468  46.182   5.758  50.152
22545W        W14469  19.256   4.787  49.690
22546W        W14470  27.741  27.206  49.680
22547W        W14471  17.268  34.201  50.622
22548W        W14472  25.738  25.249  53.356
22549W        W14473  31.721  47.210  52.446
22550W        W14474  25.226  15.743  52.864
22551W        W14475   7.763  28.738  52.870
22552W        W14476  12.745  19.726  49.667
22553W        W14477  38.189   0.770  53.359
22554W        W14478  28.708  41.704  52.411
22555W        W14479  24.719  28.749  49.682
22556W        W14480   7.286  29.743  49.703
22557W        W14481  33.229  18.738  52.896
22558W        W14482   2.255   2.750  52.881
22559W        W14483  41.226   3.791  52.877
22560W        W14484  43.190   8.753  53.781
22561W        W14485  24.712  26.731  53.786
22562W        W14486  23.735  34.698  52.446
22563W        W14487  18.767  12.263  52.883
22564W        W14488  25.740  14.262  51.976
22565W        W14489  29.235  40.721  51.068
22566W        W14490   0.271  25.746  51.075
22567W        W14491  22.246  13.277  49.690
22568W        W14492  33.716  22.257  50.592
22569W        W14493   0.251  38.704  51.948
22570W        W14494  16.261  19.765  50.141
22571W        W14495  48.208  12.740  51.978
22572W        W14496  11.735  22.263  50.596
22573W        W14497  27.733   5.751  53.323
22574W        W14498  14.761  26.712  50.598
22575W        W14499   1.266  21.737  53.324
22576W        W14500   7.247  14.744  51.531
22577W        W14501  33.238  43.184  52.424
22578W        W14502  24.253  34.715  51.963
22579W        W14503   0.756  43.697  53.787
22580W        W14504  42.186  35.202  53.802
22581W        W14505  38.730  43.225  50.587
22582W        W14506  38.208  32.218  52.426
22583W        W14507  24.724  28.744  50.600
22584W        W14508   9.249  43.683  49.684
22585W        W14509   9.243  37.217  53.321
22586W        W14510  47.176  43.679  49.668
22587W        W14511  29.231  13.230  50.601
22588W        W14512   1.754  24.226  50.585
22589W        W14513  44.202  40.716  52.898
22590W        W14514  34.703  27.720  49.708
22591W        W14515   4.254   2.778  51.051
22592W        W14516  42.694  40.696  51.050
22593W        W14517   4.755  13.258  52.886
22594W        W14518   6.764   5.745  50.132
22595W        W14519   3.249  22.759  53.349
22596W        W14520  47.190   1.761  51.991
22597W        W14521  14.770  16.769  50.124
22598W        W14522  24.755   4.292  52.887
22599W        W14523  34.219  47.716  51.532
22600W        W14524   6.240  41.687  52.897
22601W        W14525  35.237  32.198  53.778
22602W        W14526   3.787  46.216  53.780
22603W        W14527  32.208  27.708  51.535
22604W        W14528  47.699  24.254  52.866
22605W        W14529   4.763  38.227  50.139
22606W        W14530  42.711   2.282  52.439
22607W        W14531  24.214  16.257  49.691
22608W        W14532  32.705  40.693  52.877
22609W        W14533   1.291  22.234  49.697
22610W        W14534  16.740  46.703  51.492
22611W        W14535  16.749  25.229  49.709
22612W        W14536  25.209  11.764  52.862
22613W        W14537  32.702  33.226  50.590
22614W        W14538  36.195   0.781  52.893
22615W        W14539  14.274  21.760  53.806
22616W        W14540   9.768  42.689  53.316
22617W        W14541  36.210  20.245  50.618
22618W        W14542  25.752  40.201  50.159
22619W        W14543  34.233  25.742  53.330
22620W        W14544   7.239  12.271  53.333
22621W        W14545  33.197  26.247  53.812
22622W        W14546  22.233  37.229  50.153
22623W        W14547  14.244   5.761  53.782
22624W        W14548  12.742  22.230  53.773
22625W        W14549   4.766  32.737  52.880
22626W        W14550  36.239  18.747  52.430
22627W        W14551  29.732  32.737  52.890
22628W        W14552  25.253  14.262  52.890
22629W        W14553  23.248  20.250  52.870
22630W        W14554  10.737  16.240  52.864
22631W        W14555  45.199   4.753  51.948
22632W        W14556  13.231  44.224  49.690
22633W        W14557  13.756  22.253  52.405
22634W        W14558  13.734  21.764  52.902
22635W        W14559  37.205  24.236  53.784
22636W        W14560  22.233  40.724  53.326
22637W        W14561  27.740  33.232  50.149
22638W        W14562   2.790   0.760  53.799
22639W        W14563  11.752  39.213  52.898
22640W        W14564   9.240  14.734  53.330
22641W        W14565  47.688  26.230  50.155
22642W        W14566  38.724  21.250  51.041
22643W        W14567  21.247  23.238  52.427
22644W        W14568   1.286  42.201  49.677
22645W        W14569   9.284  47.194  53.794
22646W        W14570  40.732  13.771  50.597
22647W        W14571  40.184  30.233  51.492
22648W        W14572  11.248  19.735  52.884
22649W        W14573  21.261  42.712  51.530
22650W        W14574  21.239  48.193  51.960
22651W        W14575  13.774   3.286  50.614
22652W        W14576  48.196   2.292  53.356
22653W        W14577  38.688  28.213  51.498
22654W        W14578   1.773  42.699  52.874
22655W        W14579  17.737  21.726  53.351
22656W        W14580  44.696  47.672  53.809
22657W        W14581  47.196  27.251  52.425
22658W        W14582   1.278   8.766  51.509
22659W        W14583  11.242  37.214  49.698
22660W        W14584  16.734  15.257  51.528
22661W        W14585   3.779  18.264  50.605
22662W        W14586  38.220  32.728  53.347
22663W        W14587  27.218  31.714  52.872
22664W        W14588  33.699   2.761  50.594
22665W        W14589  28.738   3.761  53.799
22666W        W14590  21.228  11.746  50.144
22667W        W14591   7.266   6.262  49.674
22668W        W14592  34.228  21.242  50.598
22669W        W14593  25.732  34.736  52.901
22670W        W14594  34.239  34.720  52.889
22671W        W14595  11.779  22.257  49.707
22672W        W14596  47.184  46.222  51.041
22673W        W14597  33.705  37.223  50.124
22674W        W14598  29.251  28.729  49.682
22675W        W14599  24.712  32.224  51.057
22676W        W14600  15.736   4.791  53.784
22677W        W14601  38.717  46.676  52.883
22678W        W14602  22.259  26.244  53.348
22679W        W14603  36.701  22.730  51.972
22680W        W14604  45.221   6.267  52.448
22681W        W14605  25.728  39.705  52.421
22682W        W14606  43.689  44.676  50.619
22683W        W14607  14.758  19.242  51.980
22684W        W14608   1.751  13.245  49.704
22685W        W14609  35.727  35.224  53.800
22686W        W14610   0.795   6.745  51.065
22687W        W14611  19.236  46.685  52.422
22688W        W14612  15.768   9.769  53.791
22689W        W14613  17.744  38.233  53.810
22690W        W14614  20.234  15.234  52.886
22691W        W14615  21.258  44.211  52.872
22692W        W14616   9.768  26.743  51.039
22693W        W14617   4.744  34.201  52.870
22694W        W14618  10.239  38.699  53.333
22695W        W14619   7.776   9.768  52.412
22696W        W14620  20.219  34.699  51.970
22697W        W14621   1.298   8.250  51.962
22698W        W14622  24.742   0.764  52.410
22699W        W14623  45.183   7.780  52.875
22700W        W14624  29.703   9.281  51.509
22701W        W14625   6.746  16.738  50.140
22702W        W14626   6.767  40.697  53.360
22703W        W14627   3.784   8.284  53.809
22704W        W14628  32.242  45.179  51.491
22705W        W14629  29.204   4.762  50.164
22706W        W14630  25.746  43.217  50.600
22707W        W14631  24.250  11.242  50.156
22708W        W14632  21.259  11.750  50.603
22709W        W14633  39.233   5.246  52.863
22710W        W14634  31.725   0.764  50.157
22711W        W14635  48.213   6.781  53.788
22712W        W14636  28.205  38.714  49.673
22713W        W14637   5.749  36.237  52.420
22714W        W14638  15.741  15.757  52.427
22715W        W14639  15.752  41.204  53.356
22716W        W14640  17.254  38.189  51.990
22717W        W14641   0.286  42.715  49.702
22718W        W14642  19.267  14.237  49.677
22719W        W14643  23.748  39.202  51.491
22720W        W14644   9.240  37.710  53.800
22721W        W14645   6.287  26.734  49.704
22722W        W14646  32.720  33.695  51.963
22723W        W14647  17.241  11.738  51.074
22724W        W14648  48.184  36.709  50.148
22725W        W14649  35.224  40.708  50.151
22726W        W14650  19.719  42.681  49.676
22727W        W14651  30.732  12.735  50.604
22728W        W14652  39.224  21.739  53.788
22729W        W14653   5.782  14.734  52.410
22730W        W14654  12.749   6.276  53.337
22731W        W14655  23.214  16.255  52.864
22732W        W14656   3.294  36.223  49.684
22733W        W14657  39.233  40.720  50.611
22734W        W14658  16.229  44.190  51.049
22735W        W14659  11.745  29.733  53.817
22736W        W14660   1.759  44.696  49.670
22737W        W14661  42.724  36.699  50.162
22738W        W14662   0.773   8.770  53.802
22739W        W14663  33.728  21.724  51.990
22740W        W14664  28.244  33.706  52.892
22741W        W14665   5.770  15.228  52.446
22742W        W14666  28.742  30.736  53.352
22743W        W14667   7.281   2.294  53.318
22744W        W14668  24.757   9.255  49.688
22745W        W14669   2.780  25.220  50.604
22746W        W14670   7.780  43.196  49.691
22747W        W14671   4.766  40.724  50.581
22748W        W14672   5.742  11.737  53.772
22749W        W14673  47.178  37.718  53.332
22750W        W14674   6.267  25.212  51.071
22751W        W14675  42.724  24.725  53.335
22752W        W14676  33.206  15.260  50.606
22753W        W14677  14.273  36.228  50.151
22754W        W14678  38.226  17.762  50.159
22755W        W14679  35.201   5.243  50.153
22756W        W14680   6.773  20.721  50.160
22757W        W14681  28.207  12.239  53.809
22758W        W14682  33.733  21.232  51.946
22759W        W14683  11.759  32.744  49.667
22760W        W14684  12.266  41.194  49.710
22761W        W14685  21.725  25.710  51.059
22762W        W14686  32.246  40.198  49.682
22763W        W14687  28.245  15.241  51.984
22764W        W14688  31.215  24.243  51.515
22765W        W14689  39.690  45.714  51.063
22766W        W14690  33.230  31.732  50.162
22767W        W14691  14.254  29.224  52.415
22768W        W14692  26.215  23.721  51.062
22769W        W14693  30.744   2.286  52.861
22770W        W14694  32.705   6.248  53.319
22771W        W14695  26.747  30.713  49.686
22772W        W14696  20.248  25.243  50.123
22773W        W14697  35.696  29.749  51.075
22774W        W14698  32.727  47.186  50.123
22775W        W14699  39.705   4.265  50.163
22776W        W14700  37.688   1.748  53.316
22777W        W14701  16.260  26.753  51.505
22778W        W14702  35.729   8.783  52.406
22779W        W14703  23.241  40.692  49.699
22780W        W14704  47.214  13.729  52.898
22781W        W14705  46.212  35.719  52.425
22782W        W14706  40.194  24.719  51.053
22783W        W14707  27.706  12.745  49.674
22784W        W14708  26.755   2.284  50.590
22785W        W14709  23.228  21.232  51.506
22786W        W14710  40.714  45.221  53.806
22787W        W14711  25.256   9.252  50.139
22788W        W14712   5.790  22.258  52.862
22789W        W14713  46.214  35.193  52.901
22790W        W14714  12.770   1.286  51.971
22791W        W14715  32.738  23.740  51.980
22792W        W14716   7.760  21.746  50.143
22793W        W14717   7.740  33.211  50.144
22794W        W14718  46.700  23.736  50.154
22795W        W14719  38.725  14.757  50.606
22796W        W14720  23.717   8.752  51.964
22797W        W14721  40.197  26.723  51.516
22798W        W14722  30.701  32.714  50.601
22799W        W14723   5.246  23.248  50.614
22800W        W14724  28.239  38.194  51.063
22801W        W14725  47.182   5.271  52.419
22802W        W14726  37.716   2.746  50.142
22803W        W14727  22.251  44.215  51.510
22804W        W14728  31.718   7.239  51.078
22805W        W14729  42.218  13.727  50.144
22806W        W14730  27.207  34.206  50.131
22807W        W14731   6.755  36.217  52.893
22808W        W14732  26.213  47.204  52.874
22809W        W14733  14.741  35.211  51.983
22810W        W14734  19.234  26.243  51.036
22811W        W14735   6.257  19.240  51.958
22812W        W14736  15.237  44.720  50.131
22813W        W14737  41.730   8.243  51.078
22814W        W14738  42.728  36.231  50.578
22815W        W14739  24.210  40.226  53.798
22816W        W14740  42.719   2.250  53.774
22817W        W14741  12.250  43.705  50.136
22818W        W14742  26.709  28.235  53.785
22819W        W14743  17.259  36.210  52.884
22820W        W14744  26.254  40.726  51.061
22821W        W14745  10.244  38.235  50.605
22822W        W14746   1.789  30.207  50.577
22823W        W14747   2.749  41.213  52.885
22824W        W14748   0.280  44.185  51.522
22825W        W14749   4.746  12.242  50.123
22826W        W14750  42.696   8.752  51.062
22827W        W14751  46.717  28.716  51.505
22828W        W14752   1.764  37.211  53.350
22829W        W14753  16.748  38.235  51.500
22830W        W14754  47.180  30.205  50.621
22831W        W14755   3.289  21.222  51.976
22832W        W14756  48.175   3.271  51.965
22833W        W14757  37.203  28.737  49.681
22834W        W14758  45.690   3.793  53.353
22835W        W14759  13.734   7.748  53.779
22836W        W14760   9.781  35.237  51.048
22837W        W14761  23.744  40.191  52.415
22838W        W14762   1.785  39.708  50.156
22839W        W14763  36.232   9.267  53.318
22840W        W14764   8.784  41.715  51.066
22841W        W14765  38.194  47.177  53.780
22842W        W14766  36.692  32.203  51.493
22843W        W14767  35.735  16.748  51.510
22844W        W14768  28.244   2.777  53.320
22845W        W14769  20.258  24.723  53.793
22846W        W14770  34.205   8.773  53.317
22847W        W14771  21.250  15.234  51.515
22848W        W14772  40.713  41.201  52.411
22849W        W14773   5.272   2.295  50.134
22850W        W14774  44.217  42.694  52.415
22851W        W14775  35.700  13.768  53.317
22852W        W14776   1.293  20.264  52.412
22853W        W14777  18.233  32.240  51.045
22854W        W14778  10.765  18.231  50.586
22855W        W14779  40.693   0.784  51.063
22856W        W14780  40.721  45.204  52.864
22857W        W14781   4.792  44.718  50.599
22858W        W14782  26.720  23.759  50.147
22859W        W14783  26.753   4.791  51.046
22860W        W14784   6.252  41.184  50.622
22861W        W14785  38.727  24.249  53.360
22862W        W14786  39.704  14.765  51.517
22863W        W14787   9.269  24.239  49.706
22864W        W14788   8.746  37.710  53.808
22865W        W14789  47.682   6.780  49.688
22866W        W14790  45.196   1.249  53.359
22867W        W14791  24.720   2.755  50.136
22868W        W14792  34.730   1.296  51.520
22869W        W14793  29.746   3.253  52.410
22870W        W14794  40.695  22.742  53.801
22871W        W14795  45.696  11.237  53.361
22872W        W14796  46.185   9.782  52.866
22873W        W14797  26.732  18.722  49.702
22874W        W14798  41.686  32.200  53.335
22875W        W14799  33.227  32.221  50.123
22876W        W14800  32.211   5.277  53.811
22877W        W14801  32.710   1.250  53.317
22878W        W14802  36.723  44.205  50.583
22879W        W14803   7.251   8.263  49.679
22880W        W14804   2.293  46.175  52.864
22881W        W14805   9.737  10.744  50.601
22882W        W14806   7.768  20.745  53.335
22883W        W14807   9.264   7.785  52.446
22884W        W14808  26.238  26.724  52.865
22885W        W14809  20.731  36.220  52.878
22886W        W14810   8.752  33.208  51.950
22887W        W14811  21.716  38.217  53.798
22888W        W14812  39.207  45.691  50.140
22889W        W14813  43.701  28.215  50.594
22890W        W14814  48.200  23.241  49.676
22891W        W14815  29.719   9.775  51.978
22892W        W14816  33.224  28.747  50.609
22893W        W14817  21.254  13.228  52.900
22894W        W14818  15.255  26.725  50.604
22895W        W14819  21.219  39.207  52.864
22896W        W14820  30.712   0.796  51.986
22897W        W14821  20.244   3.780  50.579
22898W        W14822  45.205  26.219  52.418
22899W        W14823   6.760  41.729  49.689
22900W        W14824   6.748   8.749  51.513
22901W        W14825  37.734  46.181  52.433
22902W        W14826   5.757  42.201  51.064
22903W        W14827   7.240  19.245  53.336
22904W        W14828  46.694  40.729  52.412
22905W        W14829  11.240  44.714  49.705
22906W        W14830  31.221  16.731  51.047
22907W        W14831  40.728   5.786  51.076
22908W        W14832   5.772   5.773  53.801
22909W        W14833  28.749  33.225  50.133
22910W        W14834  10.771  20.736  52.416
22911W        W14835  13.234  48.191  52.430
22912W        W14836  30.241  24.722  49.703
22913W        W14837  30.713   3.283  51.991
22914W        W14838  43.198  37.223  51.988
22915W        W14839  13.256  10.765  50.586
22916W        W14840  10.259   0.289  52.904
22917W        W14841  12.273  40.190  52.442
22918W        W14842  44.184   7.750  50.163
22919W        W14843  30.724   6.260  52.442
22920W        W14844  38.716   6.755  52.861
22921W        W14845  11.751  45.209  53.800
22922W        W14846  36.214   8.774  53.331
22923W        W14847  25.742  26.746  51.039
22924W        W14848  46.689  25.257  51.511
22925W        W14849  12.240  41.187  50.165
22926W        W14850   1.268  15.240  51.516
22927W        W14851  45.186   9.757  52.434
22928W        W14852  38.209  20.747  51.499
22929W        W14853  46.710  32.204  51.061
22930W        W14854  33.207  15.765  49.672
22931W        W14855  47.182   2.265  51.978
22932W        W14856  33.711  26.217  51.975
22933W        W14857  35.223  19.765  52.861
22934W        W14858  18.753  12.738  53.782
22935W        W14859  10.235   8.776  50.605
22936W        W14860   9.238  12.262  52.420
22937W        W14861  21.252  34.234  52.867
22938W        W14862   3.783  25.245  53.781
22939W        W14863  27.236  28.253  50.586
22940W        W14864  30.749  33.720  52.431
22941W        W14865   5.768  32.706  51.072
22942W        W14866  44.719   1.750  52.418
22943W        W14867  27.247  42.186  51.951
22944W        W14868  29.712   7.260  51.495
22945W        W14869  32.220  22.746  51.054
22946W        W14870  29.720   2.753  51.982
22947W        W14871  44.218  30.215  52.416
22948W        W14872  27.211  24.723  49.696
22949W        W14873   5.255  38.706  49.704
22950W        W14874  41.216  28.739  49.709
22951W        W14875  31.224  28.718  51.508
22952W        W14876   3.263   2.292  53.773
22953W        W14877   3.248  10.249  50.139
22954W        W14878  23.750  20.751  50.137
22955W        W14879  38.228   0.758  50.593
22956W        W14880  12.773  42.216  50.131
22957W        W14881  22.731  11.732  52.429
22958W        W14882  38.735  26.748  50.158
22959W        W14883  33.221  41.183  53.778
22960W        W14884  45.695  34.741  53.814
22961W        W14885  43.193  10.734  53.337
22962W        W14886  21.220   3.265  51.058
22963W        W14887  11.246   2.790  53.775
22964W        W14888  35.712  12.732  50.129
22965W        W14889  39.214  12.768  51.053
22966W        W14890  25.725  17.732  50.131
22967W        W14891  34.713  21.729  52.430
22968W        W14892  32.212   8.768  51.500
22969W        W14893   0.758  41.199  52.437
22970W        W14894  14.245   1.282  53.810
22971W        W14895  22.748  38.727  49.694
22972W        W14896  17.737  38.736  50.124
22973W        W14897   7.288  22.213  52.869
22974W        W14898  41.216  37.722  53.781
22975W        W14899  40.688  39.212  49.681
22976W        W14900  20.751  38.732  51.530
22977W        W14901  35.731  10.283  50.161
22978W        W14902  23.757  48.177  51.515
22979W        W14903  30.213  15.744  51.069
22980W        W14904  20.742  19.719  49.670
22981W        W14905  12.732  39.208  51.042
22982W        W14906   8.255  31.241  49.706
22983W        W14907   2.266  27.752  53.337
22984W        W14908   5.290  14.245  50.129
22985W        W14909  27.206  39.194  50.594
22986W        W14910  44.713   4.772  52.863
22987W        W14911  32.732   9.758  51.042
22988W        W14912   7.739  26.739  51.493
22989W        W14913  45.176  13.764  53.797
22990W        W14914   3.284  10.759  51.958
22991W        W14915  18.760  48.208  51.957
22992W        W14916  35.203  47.197  51.953
22993W        W14917  36.223   0.784  51.500
22994W        W14918  23.743   2.760  50.591
22995W        W14919  37.211  12.268  50.161
22996W        W14920  22.723  23.226  53.776
22997W        W14921   1.267  11.254  53.779
22998W        W14922  31.719  28.222  52.405
22999W        W14923  37.195  32.723  49.697
23000W        W14924  45.679  32.198  53.326
23001W        W14925   2.266  45.192  49.680
23002W        W14926  11.777  21.223  49.684
23003W        W14927   8.760   1.268  51.072
23004W        W14928   2.289  48.184  51.493
23005W        W14929  32.734   6.753  53.343
23006W        W14930  28.709  30.718  50.599
23007W        W14931  12.264  47.176  49.708
23008W        W14932  14.241  44.711  53.800
23009W        W14933   7.742  37.705  53.326
23010W        W14934  27.706  45.715  53.351
23011W        W14935  20.258  32.210  50.126
23012W        W14936   2.793  18.232  51.063
23013W        W14937  38.202   5.263  51.534
23014W        W14938   9.240  28.239  52.439
23015W        W14939  44.208  18.235  51.963
23016W        W14940  29.229  10.778  51.498
23017W        W14941  28.241   1.283  50.139
23018W        W14942  14.747  21.231  50.149
23019W        W14943  42.208  48.219  51.055
23020W        W14944  27.207  17.253  51.962
23021W        W14945  18.745  26.233  51.979
23022W        W14946  47.216  24.252  49.688
23023W        W14947  24.745  43.725  51.980
23024W        W14948  28.228  32.733  52.865
23025W        W14949   1.755  22.717  51.950
23026W        W14950  17.751   0.792  52.872
23027W        W14951   1.760  14.249  51.534
23028W        W14952   4.248   3.793  53.809
23029W        W14953  22.219   0.767  51.037
23030W        W14954  35.715  33.699  51.987
23031W        W14955  13.755  17.741  52.447
23032W        W14956   3.284  25.754  51.951
23033W        W14957  30.216  37.196  51.967
23034W        W14958  14.738  37.704  52.904
23035W        W14959  18.262  39.707  53.359
23036W        W14960  29.250  24.716  53.776
23037W        W14961  24.235   6.774  52.417
23038W        W14962  48.211  24.258  51.967
23039W        W14963  32.216  44.696  51.510
23040W        W14964  23.714   3.288  50.602
23041W        W14965   3.793   2.284  50.615
23042W        W14966  14.236  18.234  49.686
23043W        W14967  45.194  43.690  52.442
23044W        W14968  30.242  46.208  50.126
23045W        W14969  29.748  28.249  50.160
23046W        W14970  39.214  39.227  51.048
23047W        W14971   2.793  31.240  53.353
23048W        W14972   3.757   8.738  51.955
23049W        W14973  34.213   2.285  52.863
23050W        W14974  42.680  46.714  51.079
23051W        W14975  46.211  11.270  51.526
23052W        W14976   4.781  30.215  51.072
23053W        W14977  35.213  42.688  51.534
23054W        W14978   7.782  39.210  50.578
23055W        W14979  33.234  36.231  49.696
23056W        W14980  43.184   5.762  53.802
23057W        W14981   5.790  12.277  52.898
23058W        W14982   5.269  28.735  51.037
23059W        W14983  19.239   4.775  50.604
23060W        W14984  28.737  14.245  51.049
23061W        W14985   4.244  28.216  51.974
23062W        W14986  14.242  30.701  51.037
23063W        W14987  14.241  46.220  51.951
23064W        W14988  25.240  35.704  53.337
23065W        W14989  46.180  21.760  53.329
23066W        W14990  25.751  33.741  52.410
23067W        W14991   7.778  42.198  51.983
23068W        W14992  19.242  44.179  51.051
23069W        W14993   6.241  15.763  50.580
23070W        W14994  48.195  26.222  52.436
23071W        W14995  12.767   1.776  53.333
23072W        W14996  22.749  12.251  50.614
23073W        W14997   2.281  28.713  52.899
23074W        W14998  14.267   7.287  52.445
23075W        W14999   1.778  37.199  52.882
23076W        W15000  36.200  46.703  49.708
23077W        W15001  24.753  36.690  50.623
23078W        W15002  31.245  47.672  53.796
23079W        W15003  30.250   9.778  51.505
23080W        W15004   8.264   0.290  51.509
23081W        W15005  28.709   1.772  49.668
23082W        W15006  32.726  45.216  53.341
23083W        W15007  41.726  33.717  49.702
23084W        W15008   3.253  11.269  50.612
23085W        W15009  13.269   5.752  50.605
23086W        W15010  19.266  14.766  53.351
23087W        W15011  35.710   7.264  52.404
23088W        W15012  21.732  14.251  53.323
23089W        W15013   9.281  29.203  50.616
23090W        W15014  36.200  15.235  53.325
23091W        W15015  40.713  32.217  49.699
23092W        W15016   8.778  25.709  51.493
23093W        W15017  19.749   9.249  50.585
23094W        W15018   3.251  40.701  51.529
23095W        W15019   0.779  17.261  50.583
23096W        W15020  15.249   2.251  52.878
23097W        W15021  45.685  33.723  50.581
23098W        W15022  32.728  46.708  51.492
23099W        W15023  46.704  36.234  52.883
23100W        W15024  11.745  36.702  50.604
23101W        W15025   2.267   3.276  52.435
23102W        W15026  40.204  42.188  52.863
23103W        W15027  15.768  28.212  51.528
23104W        W15028  48.214   0.262  51.986
23105W        W15029  38.192  10.236  53.348
23106W        W15030  38.221  18.242  53.805
23107W        W15031  43.689  34.234  52.429
23108W        W15032   4.744  38.209  53.781
23109W        W15033   5.744   6.785  53.349
23110W        W15034  18.763  41.195  51.498
23111W        W15035   8.772   1.781  50.602
23112W        W15036  31.207  28.720  50.616
23113W        W15037   3.254   7.256  53.784
23114W        W15038   8.259   6.250  53.331
23115W        W15039  27.752  40.188  51.984
23116W        W15040   2.763  42.189  52.894
23117W        W15041  19.741  28.750  51.974
23118W        W15042  18.226  32.212  51.503
23119W        W15043  46.208  46.709  50.614
23120W        W15044  10.255  24.731  51.041
23121W        W15045  20.728  11.265  52.446
23122W        W15046  41.719  36.227  52.897
23123W        W15047   2.765  44.678  51.973
23124W        W15048   4.768  44.687  51.960
23125W        W15049  10.236   7.281  51.535
23126W        W15050  12.741  40.230  53.345
23127W        W15051  38.210  42.211  53.353
23128W        W15052  25.731   0.789  51.517
23129W        W15053  47.188   2.794  51.050
23130W        W15054   7.266   8.238  53.326
23131W        W15055  40.222  18.267  50.620
23132W        W15056  17.745  41.718  50.146
23133W        W15057   8.757   6.277  52.878
23134W        W15058   3.277   8.779  51.507
23135W        W15059  25.240   9.264  52.435
23136W        W15060  28.248  42.185  49.704
23137W        W15061  25.730  19.744  51.491
23138W        W15062  44.189  38.206  51.957
23139W        W15063  16.227  41.186  50.159
23140W        W15064   7.760  42.229  52.422
23141W        W15065   9.744  29.234  51.953
23142W        W15066  37.231  38.211  50.591
23143W        W15067  18.754  43.191  53.798
23144W        W15068  22.740  28.707  53.782
23145W        W15069  32.220  36.701  49.688
23146W        W15070  27.713   0.261  49.684
23147W        W15071  33.738  38.731  51.965
23148W        W15072  15.262   2.780  51.982
23149W        W15073  23.255  10.762  49.683
23150W        W15074  30.213  16.227  53.330
23151W        W15075  37.233  12.244  52.434
23152W        W15076  10.765  41.706  49.708
23153W        W15077  47.219  29.216  50.608
23154W        W15078  33.723  29.745  50.594
23155W        W15079  24.221  40.224  52.432
23156W        W15080  41.204  31.706  53.360
23157W        W15081  33.212  35.718  53.817
23158W        W15082   2.291  13.749  51.529
23159W        W15083  35.194  21.734  50.610
23160W        W15084   6.744  14.757  50.619
23161W        W15085  15.250  23.235  50.141
23162W        W15086  18.721   6.274  49.674
23163W        W15087  27.723  35.713  51.073
23164W        W15088  37.232  42.686  53.343
23165W        W15089  13.729  39.708  52.893
23166W        W15090  32.235  27.232  51.982
23167W        W15091  43.717   6.766  50.137
23168W        W15092  35.739   0.750  51.043
23169W        W15093   2.250   9.268  51.981
23170W        W15094  11.261  42.728  50.121
23171W        W15095  32.708   9.759  50.125
23172W        W15096   8.745  17.761  52.860
23173W        W15097  36.694  40.225  53.345
23174W        W15098  19.246  37.220  50.154
23175W        W15099  20.765  15.253  51.529
23176W        W15100   5.789  36.220  53.326
23177W        W15101  34.233  39.703  50.153
23178W        W15102  24.222  26.242  50.602
23179W        W15103  11.243  47.709  53.358
23180W        W15104  44.697  16.238  50.126
23181W        W15105  27.738   4.282  51.069
23182W        W15106  21.719   3.778  53.359
23183W        W15107   6.285   0.785  50.600
23184W        W15108   0.278   8.781  51.056
23185W        W15109  22.231   2.262  51.531
23186W        W15110   8.767  10.758  49.669
23187W        W15111  21.739  14.755  51.513
23188W        W15112  40.694  22.713  51.066
23189W        W15113  24.239   0.776  53.357
23190W        W15114   6.747  47.718  53.359
23191W        W15115  12.247  23.742  52.421
23192W        W15116  19.261  34.241  51.047
23193W        W15117  30.233  47.196  51.978
23194W        W15118  37.690  26.239  53.321
23195W        W15119  47.712  36.729  51.059
23196W        W15120  40.712  23.220  53.324
23197W        W15121  30.221  30.718  51.490
23198W        W15122  27.214  35.204  50.159
23199W        W15123  42.689  44.221  53.806
23200W        W15124   5.742  18.740  50.153
23201W        W15125  44.718  44.208  52.875
23202W        W15126  33.230  13.248  53.796
23203W        W15127  42.687  13.769  50.129
23204W        W15128  38.235  36.703  50.152
23205W        W15129  27.220  12.277  50.156
23206W        W15130  47.699  33.228  50.588
23207W        W15131  10.741  21.247  50.132
23208W        W15132   6.285   7.779  53.786
23209W        W15133  24.221  47.681  53.334
23210W        W15134  20.748  14.229  52.433
23211W        W15135   7.750  28.711  53.811
23212W        W15136  25.715  19.264  53.354
23213W        W15137  35.227  39.196  53.356
23214W        W15138  16.724  22.240  51.068
23215W        W15139  27.222  32.733  52.405
23216W        W15140   7.283  43.686  52.433
23217W        W15141  30.211   8.770  51.074
23218W        W15142  19.721   1.270  53.810
23219W        W15143  45.676  38.708  51.075
23220W        W15144  20.233  16.262  53.808
23221W        W15145   9.778  46.697  53.319
23222W        W15146  36.704  19.230  52.875
23223W        W15147  12.769   1.792  52.403
23224W        W15148   4.280  33.201  53.347
23225W        W15149  22.756   4.258  53.817
23226W        W15150  35.691  19.259  50.131
23227W        W15151  20.717  30.708  50.124
23228W        W15152  45.213  14.242  52.413
23229W        W15153  38.218  18.743  51.055
23230W        W15154  22.242  44.212  51.066
23231W        W15155  47.682  26.241  53.331
23232W        W15156  38.198   4.244  51.522
23233W        W15157  33.230  17.744  53.322
23234W        W15158  33.204  28.704  52.894
23235W        W15159  45.221  45.720  52.410
23236W        W15160   2.750  22.726  50.601
23237W        W15161  13.242  25.716  51.971
23238W        W15162  31.239   9.776  52.896
23239W        W15163  39.209   6.246  53.326
23240W        W15164  23.749  10.239  50.144
23241W        W15165   2.247  17.736  52.880
23242W        W15166  35.700   6.780  52.416
23243W        W15167  37.226  35.241  53.780
23244W        W15168  37.691  15.747  52.885
23245W        W15169  39.728   5.265  51.950
23246W        W15170  38.216  21.223  52.425
23247W        W15171  32.239  21.763  49.672
23248W        W15172  27.210  47.698  52.427
23249W        W15173  42.702  41.724  51.987
23250W        W15174  39.213   7.268  51.057
23251W        W15175  16.252  23.247  51.990
23252W        W15176  11.757  38.732  53.780
23253W        W15177  31.731  18.741  50.589
23254W        W15178  42.195  46.676  52.432
23255W        W15179  23.259  37.691  51.505
23256W        W15180  28.228  22.729  49.675
23257W        W15181   8.761  45.705  50.147
23258W        W15182  36.217  13.751  50.145
23259W        W15183  44.213  29.234  51.508
23260W        W15184   7.283  31.223  52.893
23261W        W15185  14.732  31.710  51.062
23262W        W15186  14.238  26.755  53.320
23263W        W15187  21.263  44.693  52.431
23264W        W15188  27.731  37.225  52.862
23265W        W15189   8.282  42.690  50.615
23266W        W15190   7.764  23.238  50.149
23267W        W15191  26.727  14.751  49.689
23268W        W15192  44.720  42.208  51.047
23269W        W15193  29.247  28.236  51.972
23270W        W15194  13.277   6.759  53.794
23271W        W15195  41.725   7.238  50.578
23272W        W15196  41.197  15.749  53.779
23273W        W15197  17.228   7.739  51.987
23274W        W15198   7.758  17.238  52.429
23275W        W15199  29.702  28.726  51.039
23276W        W15200  43.222  30.740  51.954
23277W        W15201   0.767  24.759  49.665
23278W        W15202   0.762  40.694  52.876
23279W        W15203  20.226   7.750  53.808
23280W        W15204  16.243  18.221  50.591
23281W        W15205  16.234   4.251  51.077
23282W        W15206  37.234   7.283  51.066
23283W        W15207  14.242  15.765  53.334
23284W        W15208  23.222  36.202  53.328
23285W        W15209  16.748  12.230  53.357
23286W        W15210  17.264  23.233  50.150
23287W        W15211  19.220  43.225  50.145
23288W        W15212  27.237  22.749  52.901
23289W        W15213  17.727  15.261  50.605
23290W        W15214  48.214  25.723  53.799
23291W        W15215   5.771   0.751  52.866
23292W        W15216   5.774  25.736  51.054
23293W        W15217  40.733  42.187  52.426
23294W        W15218  12.250  36.199  51.045
23295W        W15219  15.252   1.281  51.491
23296W        W15220   9.780  22.240  50.147
23297W        W15221  28.708  21.243  53.356
23298W        W15222   7.285  34.217  51.981
23299W        W15223  37.735  21.245  51.977
23300W        W15224   8.272  26.235  51.961
23301W        W15225  38.710   4.771  53.344
23302W        W15226  13.735  15.265  51.535
23303W        W15227  42.724  30.738  52.903
23304W        W15228  37.200  22.221  53.784
23305W        W15229  11.271  34.216  50.608
23306W        W15230  31.713  28.748  52.415
23307W        W15231   4.786  27.225  52.444
23308W        W15232  28.720  14.735  51.504
23309W        W15233  46.706  48.173  51.492
23310W        W15234  22.260  46.691  50.125
23311W        W15235  10.254  29.741  51.510
23312W        W15236  46.175  19.253  53.786
23313W        W15237  27.233  40.684  53.815
23314W        W15238   6.783  11.751  49.668
23315W        W15239  27.252  42.718  50.164
23316W        W15240   0.788  40.723  53.318
23317W        W15241  17.738  35.731  53.318
23318W        W15242  15.265  47.679  51.046
23319W        W15243   2.759  43.704  51.492
23320W        W15244  15.770   6.284  52.870
23321W        W15245  32.735  35.201  53.798
23322W        W15246  40.195  18.768  51.076
23323W        W15247  21.252   6.789  53.337
23324W        W15248  37.710  29.706  51.072
23325W        W15249  39.206  34.224  50.612
23326W        W15250  45.190  41.223  52.868
23327W        W15251  38.719   5.249  49.667
23328W        W15252  37.690  33.698  51.530
23329W        W15253  29.725  19.725  53.784
23330W        W15254   8.264  30.743  52.443
23331W        W15255  19.223  23.720  51.958
23332W        W15256  45.716  20.741  52.424
23333W        W15257   4.757  17.729  52.897
23334W        W15258  38.195   8.275  50.610
23335W        W15259  39.698   6.276  51.522
23336W        W15260  12.269  25.708  50.601
23337W        W15261   1.290  19.753  52.898
23338W        W15262  28.749  13.763  53.344
23339W        W15263  21.728  22.722  53.354
23340W        W15264   8.765  35.227  52.446
23341W        W15265  19.724  47.714  50.126
23342W        W15266   0.773   3.248  51.967
23343W        W15267   1.274  34.718  52.875
23344W        W15268  16.246  26.222  53.347
23345W        W15269   5.757  13.744  51.975
23346W        W15270  39.190  13.234  51.957
23347W        W15271  16.259  16.756  49.689
23348W        W15272  18.740  21.722  51.509
23349W        W15273  16.737  35.196  50.124
23350W        W15274  37.736   2.766  51.519
23351W        W15275   3.766  14.258  50.135
23352W        W15276  14.269  19.222  52.404
23353W        W15277  35.194   6.786  52.893
23354W        W15278  22.249  11.775  53.797
23355W        W15279  36.710  36.734  51.063
23356W        W15280  36.694   6.276  49.710
23357W        W15281  21.234  30.216  52.415
23358W        W15282  11.244  31.738  49.708
23359W        W15283   7.265   6.783  51.504
23360W        W15284  20.236  39.701  53.339
23361W        W15285  22.725  43.701  50.595
23362W        W15286  48.197  34.709  52.412
23363W        W15287  24.714  45.676  52.884
23364W        W15288   6.247  20.255  52.426
23365W        W15289  10.773   1.288  51.527
23366W        W15290  13.246  29.746  52.412
23367W        W15291  11.749   9.775  53.341
23368W        W15292   8.755  42.216  52.444
23369W        W15293  22.735  28.734  52.880
23370W        W15294  18.737   4.259  50.158
23371W        W15295  22.255  26.210  50.141
23372W        W15296  28.729   2.257  53.337
23373W        W15297  33.225  25.755  53.775
23374W        W15298  24.743  14.775  52.882
23375W        W15299  13.234  47.705  50.153
23376W        W15300  29.722   9.278  52.411
23377W        W15301  46.195  47.713  51.058
23378W        W15302  37.217  33.694  50.607
23379W        W15303  41.683   2.274  52.432
23380W        W15304  33.727  31.243  51.059
23381W        W15305  26.737  10.768  49.706
23382W        W15306  21.243  26.709  50.586
23383W        W15307  48.196  19.264  50.600
23384W        W15308   5.246   7.738  53.778
23385W        W15309  19.265  16.732  50.606
23386W        W15310  19.741   3.782  51.496
23387W        W15311  33.730  11.232  52.440
23388W        W15312   3.755  29.205  51.527
23389W        W15313  27.214  42.716  50.618
23390W        W15314  38.712  37.213  51.507
23391W        W15315  25.729  12.261  53.343
23392W        W15316   4.282  37.207  51.047
23393W        W15317   8.750  38.201  52.418
23394W        W15318   8.766  32.237  51.523
23395W        W15319  45.713  28.217  49.696
23396W        W15320  35.731  46.694  49.680
23397W        W15321  35.736  18.752  52.877
23398W        W15322  47.210  11.778  52.436
23399W        W15323  39.212   9.248  52.425
23400W        W15324  19.743   1.762  49.700
23401W        W15325  40.702  39.189  50.135
23402W        W15326   2.780  39.697  52.868
23403W        W15327  11.272  19.756  51.074
23404W        W15328   4.289  27.214  50.145
23405W        W15329   3.287  47.215  52.433
23406W        W15330   4.767  11.238  51.955
23407W        W15331  26.736   1.280  52.898
23408W        W15332   7.775   0.761  50.614
23409W        W15333  26.253  20.725  50.616
23410W        W15334  11.764  45.682  50.134
23411W        W15335  19.246  23.261  53.337
23412W        W15336  39.687  24.744  52.876
23413W        W15337  28.220  30.723  53.349
23414W        W15338  39.192  36.737  51.960
23415W        W15339  13.766  42.715  53.325
23416W        W15340  27.227   5.244  50.150
23417W        W15341   8.748  40.226  52.422
23418W        W15342   7.787  25.254  50.616
23419W        W15343   8.774  48.174  51.966
23420W        W15344  14.734   7.260  49.705
23421W        W15345  16.746  19.738  53.347
23422W        W15346  41.223  42.721  52.405
23423W        W15347  26.253  47.176  53.329
23424W        W15348   2.767  34.734  51.054
23425W        W15349   2.779   3.262  50.142
23426W        W15350  46.699  17.260  50.162
23427W        W15351  42.201  11.751  52.890
23428W        W15352  10.236  37.198  52.435
23429W        W15353   6.260  42.687  51.970
23430W        W15354  22.244   9.253  52.899
23431W        W15355   0.768   5.781  52.884
23432W        W15356  46.194  27.719  50.607
23433W        W15357  41.197  30.201  49.687
23434W        W15358  32.737  15.744  51.067
23435W        W15359  45.213   9.254  51.963
23436W        W15360   1.290  37.192  50.141
23437W        W15361  46.690  43.207  52.887
23438W        W15362   0.271  20.266  50.580
23439W        W15363  47.697   9.762  51.490
23440W        W15364   9.255  40.685  51.947
23441W        W15365  45.209  15.228  53.318
23442W        W15366  21.714  40.196  50.619
23443W        W15367  16.261   6.745  53.340
23444W        W15368   9.759  18.768  52.872
23445W        W15369  22.234  33.744  52.875
23446W        W15370  42.229   4.273  51.974
23447W        W15371  21.732  39.729  52.869
23448W        W15372  17.245   6.743  51.058
23449W        W15373  36.201  48.213  50.126
23450W        W15374  10.239  14.753  52.884
23451W        W15375  21.740  20.253  53.775
23452W        W15376  17.722  10.257  53.360
23453W        W15377  40.191  47.203  51.492
23454W        W15378   4.772  19.256  53.807
23455W        W15379  13.240  46.714  51.992
23456W        W15380  27.244  41.716  51.050
23457W        W15381  33.244  17.739  52.427
23458W        W15382  20.754  35.192  51.988
23459W        W15383  45.210  15.271  52.413
23460W        W15384   4.748  22.757  51.513
23461W        W15385  28.708  38.720  52.874
23462W        W15386   2.289  46.686  50.149
23463W        W15387  46.713   9.257  52.862
23464W        W15388  31.740  48.187  52.896
23465W        W15389  39.210  19.258  52.875
23466W        W15390  24.252   4.292  52.433
23467W        W15391  36.217  23.731  51.493
23468W        W15392  29.736  22.728  53.358
23469W        W15393  33.243  26.221  51.506
23470W        W15394  21.740   8.761  51.067
23471W        W15395  44.695  38.228  50.602
23472W        W15396   8.748  16.723  51.505
23473W        W15397   0.797  17.270  51.063
23474W        W15398  38.691  46.183  53.319
23475W        W15399  24.756  20.741  52.447
23476W        W15400   7.750   2.746  53.797
23477W        W15401  28.703  31.730  53.802
23478W        W15402   2.774   5.743  52.862
23479W        W15403  24.752   3.277  52.873
23480W        W15404  16.768  45.224  52.867
23481W        W15405  48.213   1.773  50.581
23482W        W15406  15.730  35.721  52.902
23483W        W15407  25.222  28.729  51.074
23484W        W15408   8.255  40.202  52.885
23485W        W15409  29.711  16.227  51.506
23486W        W15410   6.785  46.675  53.331
23487W        W15411  10.751  33.720  49.674
23488W        W15412  34.712  42.699  50.580
23489W        W15413   3.274  28.709  52.895
23490W        W15414  14.271  14.746  53.782
23491W        W15415  41.225  18.268  50.143
23492W        W15416  38.223   7.784  51.527
23493W        W15417   1.768   0.289  51.066
23494W        W15418  18.765   7.260  50.142
23495W        W15419  21.255  14.246  53.346
23496W        W15420  13.748  10.266  50.125
23497W        W15421  24.748  26.228  51.062
23498W        W15422  15.727  36.733  52.427
23499W        W15423  12.242   2.270  52.421
23500W        W15424  30.732   0.786  53.786
23501W        W15425  14.750  32.240  53.351
23502W        W15426  29.746  19.247  53.817
23503W        W15427  27.235  15.760  53.331
23504W        W15428   0.264  15.773  52.892
23505W        W15429   3.287  12.741  52.443
23506W        W15430  40.224  11.261  53.336
23507W        W15431  31.718  44.224  51.509
23508W        W15432  45.722  45.710  52.883
23509W        W15433  19.758   3.256  50.611
23510W        W15434  34.717   3.254  51.040
23511W        W15435  47.218  12.234  51.960
23512W        W15436  14.258  39.208  53.806
23513W        W15437   1.761  21.726  52.404
23514W        W15438  33.739  27.248  51.043
23515W        W15439  32.712   7.758  53.795
23516W        W15440  43.692  47.190  52.864
23517W        W15441  43.680  17.757  52.896
23518W        W15442  41.718  37.227  51.072
23519W        W15443  30.234  10.238  49.695
23520W        W15444   4.784  10.757  51.527
23521W        W15445   5.771   7.741  52.413
23522W        W15446  13.247  38.690  51.503
23523W        W15447  10.272  22.238  53.354
23524W        W15448  44.709  18.262  52.416
23525W        W15449  12.737  46.679  51.045
23526W        W15450  15.761  28.241  52.418
23527W        W15451  12.268  45.198  51.074
23528W        W15452  24.246  18.251  51.992
23529W        W15453   1.288  19.266  52.415
23530W        W15454  17.759  36.211  52.884
23531W        W15455  12.752  31.737  50.142
23532W        W15456  24.231   3.287  50.126
23533W        W15457   4.247  34.241  53.319
23534W        W15458  27.751  46.686  52.421
23535W        W15459  46.686  38.200  52.893
23536W        W15460   2.760  42.200  50.141
23537W        W15461   7.244  41.693  49.665
23538W        W15462  25.249   5.241  50.163
23539W        W15463   1.269  28.216  51.061
23540W        W15464   5.744  37.715  52.893
23541W        W15465  47.221   0.283  49.682
23542W        W15466   8.774   1.794  53.332
23543W        W15467  24.757   4.270  51.527
23544W        W15468  15.260  27.225  52.900
23545W        W15469  19.249  15.752  51.983
23546W        W15470   7.249  43.228  53.340
23547W        W15471  23.760  27.706  51.950
23548W        W15472  39.723  24.230  50.591
23549W        W15473  46.196  28.747  51.045
23550W        W15474  38.700  38.730  53.805
23551W        W15475  21.258  13.754  52.444
23552W        W15476  29.745   6.788  49.693
23553W        W15477  37.732  37.209  53.787
23554W        W15478  35.235   2.770  53.356
23555W        W15479  39.694  27.216  51.953
23556W        W15480   0.749  20.749  52.418
23557W        W15481  14.761  38.234  51.036
23558W        W15482   2.770  11.266  51.491
23559W        W15483  47.183  30.214  52.432
23560W        W15484  41.203  30.232  51.514
23561W        W15485  48.201  23.759  49.684
23562W        W15486  24.747  14.745  51.509
23563W        W15487  39.206  27.705  53.798
23564W        W15488  22.255   1.292  50.587
23565W        W15489  25.225   7.279  51.070
23566W        W15490  20.247  14.232  52.443
23567W        W15491  39.206   8.281  51.057
23568W        W15492  22.755  20.762  51.989
23569W        W15493  31.231   2.246  53.814
23570W        W15494  39.200  44.683  50.619
23571W        W15495  18.267  23.221  51.976
23572W        W15496   1.757  42.195  50.150
23573W        W15497  23.227  34.740  53.326
23574W        W15498   3.285  32.224  52.403
23575W        W15499  47.705   6.255  53.783
23576W        W15500  44.194  31.234  53.325
23577W        W15501  13.235  31.733  50.592
23578W        W15502  34.711   5.771  53.327
23579W        W15503  13.730  39.233  50.613
23580W        W15504  39.216  39.233  51.533
23581W        W15505  29.733  28.747  49.671
23582W        W15506  39.187  13.238  52.435
23583W        W15507  27.733  34.717  51.502
23584W        W15508  47.688  40.696  51.065
23585W        W15509  21.735  26.256  49.693
23586W        W15510   3.270  25.252  51.054
23587W        W15511  29.249  15.759  50.137
23588W        W15512   3.283  30.744  53.803
23589W        W15513  15.264  45.704  50.164
23590W        W15514   1.789  32.198  52.903
23591W        W15515   3.759   1.262  50.135
23592W        W15516  20.756  21.264  53.337
23593W        W15517  46.194  26.219  53.810
23594W        W15518   2.272  33.235  50.155
23595W        W15519   8.251  38.214  50.610
23596W        W15520  39.694  44.688  51.070
23597W        W15521   4.281  32.200  50.579
23598W        W15522  21.741   2.269  51.060
23599W        W15523  24.255  29.247  51.500
23600W        W15524  29.234  13.743  51.972
23601W        W15525  30.244   0.257  50.610
23602W        W15526   2.289  15.253  50.611
23603W        W15527   0.757  36.208  51.043
23604W        W15528   0.759  31.703  52.421
23605W        W15529   1.276  30.218  51.491
23606W        W15530  10.752   2.277  50.616
23607W        W15531  11.266   2.294  51.049
23608W        W15532  10.773  20.219  52.410
23609W        W15533   4.787  38.733  52.434
23610W        W15534  35.728  12.256  49.674
23611W        W15535  47.178  21.250  53.813
23612W        W15536  10.739  46.204  53.801
23613W        W15537  25.238  31.207  49.701
23614W        W15538  21.722  46.177  51.533
23615W        W15539  11.242  24.245  50.610
23616W        W15540   2.787  12.278  51.057
23617W        W15541  18.248   8.264  51.527
23618W        W15542  15.225  39.692  49.705
23619W        W15543  21.722  25.232  50.129
23620W        W15544  45.705  30.703  51.046
23621W        W15545  47.716  21.232  51.052
23622W        W15546  30.702  18.741  49.690
23623W        W15547  42.218  34.721  52.869
23624W        W15548  28.243  24.746  51.982
23625W        W15549  23.753  11.256  50.145
23626W        W15550  35.727   1.253  50.584
23627W        W15551  16.269  31.702  50.581
23628W        W15552   6.781   6.751  51.960
23629W        W15553   5.768  35.203  50.581
23630W        W15554  19.240  10.256  52.893
23631W        W15555  46.689  45.687  52.864
23632W        W15556  27.747   2.786  50.158
23633W        W15557  14.256  47.184  51.963
23634W        W15558  24.255   1.795  53.331
23635W        W15559  18.757  39.203  52.413
23636W        W15560  45.712  47.196  52.871
23637W        W15561   6.281   2.782  52.899
23638W        W15562  46.176   7.245  51.531
23639W        W15563  41.682   9.777  49.694
23640W        W15564  31.203   4.252  49.704
23641W        W15565  25.755  14.735  52.875
23642W        W15566  24.224   4.268  49.702
23643W        W15567  24.746  38.217  51.062
23644W        W15568  34.714  39.734  51.078
23645W        W15569  17.756  30.232  53.803
23646W        W15570   4.760  34.204  49.666
23647W        W15571  23.238  33.234  52.422
23648W        W15572   9.744   7.269  49.700
23649W        W15573  24.258  14.270  51.962
23650W        W15574  43.217   8.251  53.815
23651W        W15575   2.284   7.786  52.425
23652W        W15576  43.204  28.213  51.532
23653W        W15577  14.729  40.201  50.133
23654W        W15578  15.229  13.264  51.982
23655W        W15579  21.232  14.256  51.971
23656W        W15580  28.712  27.736  53.799
23657W        W15581  18.254   6.242  51.962
23658W        W15582  10.779   5.267  52.409
23659W        W15583   4.780   3.246  53.318
23660W        W15584  38.713  18.231  51.528
23661W        W15585  42.221  29.217  49.708
23662W        W15586  16.751  43.185  53.353
23663W        W15587   3.779   5.764  53.805
23664W        W15588  28.240  34.724  51.058
23665W        W15589  26.726   5.286  52.880
23666W        W15590  27.742  47.183  52.884
23667W        W15591  25.747  10.257  50.578
23668W        W15592  40.715  40.713  52.405
23669W        W15593  14.764  36.697  50.589
23670W        W15594  37.703  48.186  53.338
23671W        W15595  34.695   5.255  51.984
23672W        W15596  13.754   1.759  51.070
23673W        W15597  24.734  46.210  51.499
23674W        W15598  36.722  41.684  51.981
23675W        W15599   7.256  11.247  51.954
23676W        W15600  28.235  17.259  51.981
23677W        W15601  32.221  32.734  53.351
23678W        W15602   5.254  36.201  53.815
23679W        W15603  21.254   4.247  52.420
23680W        W15604   8.261  44.718  51.055
23681W        W15605  41.201  39.727  50.138
23682W        W15606   7.241   3.259  51.529
23683W        W15607  46.184  46.221  49.682
23684W        W15608  11.243  36.192  52.890
23685W        W15609  32.235  36.207  51.508
23686W        W15610   0.294   4.772  51.049
23687W        W15611  26.223  37.737  49.706
23688W        W15612  17.233  17.270  50.605
23689W        W15613  21.261  26.243  51.975
23690W        W15614  41.207  14.231  50.144
23691W        W15615  10.758  22.231  50.138
23692W        W15616  36.717  37.194  49.709
23693W        W15617  16.268  37.694  49.668
23694W        W15618  29.244  40.703  49.692
23695W        W15619  42.729  36.237  53.356
23696W        W15620  16.253  17.757  51.974
23697W        W15621  16.228   2.752  49.684
23698W        W15622  15.259  45.704  50.606
23699W        W15623  29.751  41.725  52.876
23700W        W15624  32.727   4.767  51.040
23701W        W15625  21.250  41.721  51.052
23702W        W15626  39.214  24.722  51.525
23703W        W15627  33.197  30.237  49.673
23704W        W15628  18.724   6.283  53.316
23705W        W15629  30.211  12.255  50.138
23706W        W15630  37.728  27.725  49.695
23707W        W15631  21.750  37.232  51.052
23708W        W15632  44.696   1.285  52.867
23709W        W15633  36.202  37.704  50.164
23710W        W15634  12.279   7.738  52.419
23711W        W15635  25.738   5.741  52.882
23712W        W15636  45.693  26.243  51.985
23713W        W15637  25.740  32.724  50.162
23714W        W15638  34.225  40.186  51.063
23715W        W15639  38.726  47.713  50.590
23716W        W15640  37.695  47.709  51.049
23717W        W15641  40.205  10.272  49.688
23718W        W15642  29.708  34.724  51.520
23719W        W15643  10.739  46.192  49.687
23720W        W15644  24.253  27.740  51.518
23721W        W15645  34.700   5.258  50.139
23722W        W15646  24.247  20.724  51.529
23723W        W15647  48.187  11.281  50.141
23724W        W15648  32.721  19.253  51.077
23725W        W15649   0.293  46.210  52.428
23726W        W15650  25.229  46.201  51.505
23727W        W15651  39.732  13.247  50.161
23728W        W15652  22.726  39.231  52.417
23729W        W15653   2.286  45.217  50.578
23730W        W15654  44.193  16.768  53.794
23731W        W15655  40.230  31.723  52.871
23732W        W15656  44.695   4.269  52.898
23733W        W15657  35.231  31.737  51.960
23734W        W15658  46.188  46.688  52.445
23735W        W15659  15.239  13.746  51.066
23736W        W15660  35.196  40.701  53.352
23737W        W15661  40.705  41.700  51.948
23738W        W15662  18.254  14.244  53.780
23739W        W15663   1.255   5.268  50.622
23740W        W15664   0.794  41.701  52.894
23741W        W15665  21.741  44.694  49.667
23742W        W15666  38.201  34.697  53.342
23743W        W15667  11.734  27.234  53.813
23744W        W15668  30.221  44.218  49.678
23745W        W15669  42.223  27.719  50.598
23746W        W15670  25.239  21.747  49.676
23747W        W15671  39.718  25.755  52.418
23748W        W15672   0.781  19.743  51.497
23749W        W15673  11.749   9.756  49.694
23750W        W15674   7.744  24.752  51.071
23751W        W15675  10.240   5.265  49.697
23752W        W15676  41.683   7.742  52.888
23753W        W15677  12.267  13.762  52.894
23754W        W15678  37.697  25.734  52.410
23755W        W15679   5.768  39.218  51.988
23756W        W15680  19.718  42.196  52.895
23757W        W15681  13.276  12.773  52.897
23758W        W15682  26.253  44.700  51.038
23759W        W15683  12.277   8.765  51.492
23760W        W15684   1.784  14.749  52.430
23761W        W15685  23.213  40.203  50.595
23762W        W15686  30.733   3.284  52.896
23763W        W15687  46.206  22.244  53.344
23764W        W15688  24.749  24.759  53.780
23765W        W15689   3.762  24.246  50.609
23766W        W15690  25.718  42.185  52.407
23767W        W15691  44.701  35.237  52.875
23768W        W15692  30.735   5.262  50.606
23769W        W15693  20.726  29.718  53.342
23770W        W15694   4.254  17.753  51.964
23771W        W15695  31.203  28.221  49.707
23772W        W15696  38.237  42.198  51.497
23773W        W15697  48.186  39.724  53.358
23774W        W15698  35.228   7.778  53.348
23775W        W15699  25.232   4.754  50.131
23776W        W15700   8.237  13.248  53.325
23777W        W15701   8.286  42.722  51.052
23778W        W15702  47.696   9.261  53.818
23779W        W15703  29.725  23.750  51.522
23780W        W15704  14.238  10.774  51.948
23781W        W15705   4.288  45.704  52.432
23782W        W15706  41.202  43.678  49.674
23783W        W15707  21.253  28.215  52.404
23784W        W15708   9.244  38.215  51.054
23785W        W15709  20.747  30.735  50.595
23786W        W15710  35.223  44.701  52.439
23787W        W15711  37.212   5.274  51.501
23788W        W15712   9.762  14.229  50.137
23789W        W15713  17.747  46.194  53.789
23790W        W15714  23.760   6.261  52.408
23791W        W15715   4.750  46.696  51.985
23792W        W15716  10.745  38.194  49.690
23793W        W15717  41.184  16.223  51.531
23794W        W15718  31.201  34.728  52.890
23795W        W15719  42.696  38.227  50.133
23796W        W15720  21.227  28.205  51.520
23797W        W15721  32.213  23.715  52.439
23798W        W15722  22.258   2.293  51.963
23799W        W15723  43.690  24.730  50.161
23800W        W15724  12.260  44.717  51.057
23801W        W15725   5.755  37.714  53.782
23802W        W15726  30.232  14.734  51.517
23803W        W15727  15.725  35.740  51.060
23804W        W15728  31.729  21.726  53.338
23805W        W15729  39.713  21.739  51.066
23806W        W15730  33.718   3.260  53.326
23807W        W15731  22.234  28.241  52.447
23808W        W15732  16.734  41.207  53.781
23809W        W15733   3.753  18.756  52.408
23810W        W15734   4.769  18.262  50.146
23811W        W15735   9.761   4.784  49.677
23812W        W15736  36.240  35.720  52.432
23813W        W15737   3.775  47.200  50.159
23814W        W15738  25.208  39.701  52.440
23815W        W15739   2.267  42.720  53.343
23816W        W15740  29.732   9.240  52.886
23817W        W15741  19.255  19.229  49.698
23818W        W15742  46.708  27.246  50.134
23819W        W15743  40.730  20.222  52.409
23820W        W15744  14.249  48.220  53.779
23821W        W15745  24.226   8.783  52.859
23822W        W15746   7.742  23.231  53.812
23823W        W15747   4.773  45.193  52.870
23824W        W15748  25.754  44.179  51.956
23825W        W15749  45.701   3.753  52.441
23826W        W15750  23.716  43.682  52.869
23827W        W15751  29.233  46.711  51.532
23828W        W15752  21.736   4.269  52.890
23829W        W15753  34.715  46.204  51.954
23830W        W15754  39.695  20.722  50.612
23831W        W15755   1.785  15.236  51.960
23832W        W15756  40.207  10.269  51.044
23833W        W15757  30.734  37.238  52.892
23834W        W15758  41.698   1.287  51.063
23835W        W15759  21.253  14.770  53.351
23836W        W15760  13.747   8.772  51.534
23837W        W15761  20.753  19.759  52.446
23838W        W15762  29.734   4.269  52.865
23839W        W15763  35.205   4.285  52.861
23840W        W15764   3.772  28.734  50.603
23841W        W15765  36.204  16.749  51.067
23842W        W15766  32.742  24.724  53.785
23843W        W15767  46.706   7.757  52.432
23844W        W15768  11.733  21.252  52.876
23845W        W15769  19.759  30.212  50.595
23846W        W15770  37.231   7.758  51.974
23847W        W15771   8.756  13.258  53.785
23848W        W15772   8.749  31.700  51.077
23849W        W15773  26.740   9.774  51.077
23850W        W15774  17.224   4.789  53.799
23851W        W15775  40.692  17.752  51.514
23852W        W15776  48.216  17.755  52.867
23853W        W15777  21.238  34.230  50.163
23854W        W15778  14.253   4.291  51.522
23855W        W15779  40.215   6.266  51.969
23856W        W15780  27.232  34.724  51.506
23857W        W15781  10.733  37.701  53.331
23858W        W15782  13.259  31.233  51.078
23859W        W15783  26.716  35.214  53.324
23860W        W15784  11.235  33.211  51.078
23861W        W15785  20.732  22.215  52.876
23862W        W15786  42.192  27.752  51.512
23863W        W15787  14.235  13.732  51.048
23864W        W15788   3.247  41.689  49.696
23865W        W15789   9.283  39.213  50.122
23866W        W15790  14.774  31.243  53.357
23867W        W15791  40.231   3.745  52.422
23868W        W15792  25.716  37.214  53.776
23869W        W15793  38.699  32.708  53.328
23870W        W15794   0.790   6.283  50.138
23871W        W15795  29.747  16.261  50.145
23872W        W15796   5.287   5.280  49.677
23873W        W15797  31.216  29.239  53.336
23874W        W15798  35.216   4.272  53.343
23875W        W15799   0.288  22.240  53.351
23876W        W15800   6.741   1.260  51.987
23877W        W15801  27.730   2.277  51.511
23878W        W15802  42.228  39.200  51.493
23879W        W15803   8.782  28.727  50.143
23880W        W15804  25.211  16.270  49.697
23881W        W15805   4.251  11.270  49.705
23882W        W15806   9.270  31.208  51.039
23883W        W15807  11.734  16.254  50.134
23884W        W15808   1.780   8.752  50.123
23885W        W15809  40.690  35.713  51.075
23886W        W15810  25.744   9.778  53.792
23887W        W15811   4.747  18.766  50.138
23888W        W15812  28.745   1.263  50.608
23889W        W15813   5.744  11.241  52.868
23890W        W15814  37.193   6.249  53.326
23891W        W15815  16.742  47.672  53.776
23892W        W15816  39.185  10.736  52.863
23893W        W15817  28.247  23.255  50.125
23894W        W15818  29.749  21.229  50.140
23895W        W15819  40.702   6.752  52.410
23896W        W15820  42.209  47.191  50.580
23897W        W15821  21.237  13.233  53.796
23898W        W15822   8.740  46.707  52.865
23899W        W15823  31.744  39.692  51.948
23900W        W15824  28.239  30.229  51.962
23901W        W15825  21.256  48.218  51.062
23902W        W15826  15.246   6.277  50.161
23903W        W15827  31.209  35.705  49.670
23904W        W15828  17.771   4.775  50.603
23905W        W15829  34.726  27.727  52.446
23906W        W15830  46.198  14.276  52.880
23907W        W15831   9.235  40.724  50.597
23908W        W15832  13.777  22.748  52.420
23909W        W15833  47.682  41.201  53.340
23910W        W15834   0.778  46.710  53.798
23911W        W15835  30.208  41.223  52.436
23912W        W15836   8.740  40.690  50.619
23913W        W15837   4.263  37.718  51.991
23914W        W15838  11.735   4.774  51.508
23915W        W15839  24.742  46.693  50.606
23916W        W15840  36.231  16.226  52.440
23917W        W15841  39.190   6.260  49.700
23918W        W15842   1.273  31.225  52.412
23919W        W15843  32.708  35.733  53.795
23920W        W15844  26.707  46.683  52.893
23921W        W15845   9.783  22.258  51.512
23922W        W15846  40.218  12.277  50.592
23923W        W15847  40.231  10.746  50.155
23924W        W15848  27.247   4.287  50.156
23925W        W15849  29.234   5.276  50.127
23926W        W15850  27.751  11.242  53.352
23927W        W15851   9.748  21.254  50.602
23928W        W15852  36.194  19.766  50.165
23929W        W15853  36.214  28.719  50.586
23930W        W15854  34.211  27.752  51.980
23931W        W15855  15.734  26.219  53.352
23932W        W15856   0.260  15.229  51.957
23933W        W15857  33.699  39.727  52.404
23934W        W15858   5.259  18.725  51.534
23935W        W15859  12.250  13.764  53.326
23936W        W15860  23.754  41.202  52.867
23937W        W15861  19.221   5.263  50.578
23938W        W15862  24.736   3.265  52.446
23939W        W15863   3.256  19.259  50.602
23940W        W15864  42.729  19.266  51.494
23941W        W15865  22.736  11.751  50.149
23942W        W15866  19.739  33.720  52.902
23943W        W15867   1.769  32.233  49.709
23944W        W15868  25.245   9.750  49.683
23945W        W15869  30.724  16.741  50.164
23946W        W15870  37.234  16.759  53.776
23947W        W15871  25.730  34.230  51.977
23948W        W15872   4.764  16.752  51.507
23949W        W15873  12.740   6.261  49.681
23950W        W15874   0.769  13.755  53.794
23951W        W15875   4.786  16.738  52.416
23952W        W15876  10.766  20.738  50.603
23953W        W15877   7.748  26.714  50.151
23954W        W15878  43.193  13.231  52.875
23955W        W15879  18.229  43.699  52.426
23956W        W15880  39.197  24.241  49.701
23957W        W15881  36.199  43.727  53.791
23958W        W15882  20.224  16.753  51.990
23959W        W15883  34.216  17.240  52.448
23960W        W15884   9.734  39.222  51.495
23961W        W15885  43.193  40.215  53.781
23962W        W15886  19.756  42.706  51.063
23963W        W15887  36.212  39.207  53.776
23964W        W15888  44.698  47.189  50.593
23965W        W15889  27.247  42.211  51.523
23966W        W15890  14.737   8.246  53.802
23967W        W15891  40.696  34.726  51.500
23968W        W15892  11.237  24.238  53.787
23969W        W15893   9.758  19.248  50.145
23970W        W15894   2.265  10.271  51.494
23971W        W15895  28.233  21.228  50.127
23972W        W15896  35.221  41.720  50.128
23973W        W15897  31.220  15.230  50.128
23974W        W15898  21.748  16.229  52.901
23975W        W15899  24.723  25.754  53.789
23976W        W15900  45.700   6.242  51.035
23977W        W15901   2.788  20.228  53.808
23978W        W15902  38.688  39.198  50.147
23979W        W15903   0.762  16.235  51.068
23980W        W15904  12.751  22.224  51.036
23981W        W15905  27.254  33.717  49.681
23982W        W15906   1.792  18.262  49.670
23983W        W15907  12.265  22.214  51.063
23984W        W15908  37.189  23.718  53.806
23985W        W15909   8.270  26.741  52.429
23986W        W15910  11.276  39.230  52.904
23987W        W15911   8.279   1.254  52.405
23988W        W15912   1.296  27.215  51.965
23989W        W15913  44.198  12.276  52.415
23990W        W15914  16.261  31.237  51.955
23991W        W15915  14.738  34.727  53.318
23992W        W15916   0.273  46.176  53.792
23993W        W15917  44.181  15.262  52.886
23994W        W15918  15.236  27.254  51.959
23995W        W15919  18.731   9.264  49.707
23996W        W15920  17.757  35.208  49.702
23997W        W15921  18.758  10.734  53.807
23998W        W15922  41.203  45.182  51.511
23999W        W15923  14.245   4.254  52.890
24000W        W15924  42.681   2.758  51.071
24001W        W15925  44.215  15.243  53.347
24002W        W15926   9.238  18.756  51.959
24003W        W15927  48.207  30.246  53.813
24004W        W15928  20.261  37.201  49.688
24005W        W15929   9.273  37.208  50.137
24006W        W15930   1.267  42.198  51.490
24007W        W15931  22.234  21.735  49.682
24008W        W15932  24.740   9.254  51.522
24009W        W15933  32.234  11.762  51.970
24010W        W15934  18.251  43.719  53.359
24011W        W15935   7.283  11.766  49.704
24012W        W15936  14.749  36.238  53.329
24013W        W15937  24.212  40.202  49.670
24014W        W15938   0.289  30.202  52.414
24015W        W15939   8.276  47.716  52.427
24016W        W15940  43.197  35.210  51.969
24017W        W15941   2.270  44.696  52.860
24018W        W15942  41.210  44.692  52.881
24019W        W15943  36.215  46.696  53.789
24020W        W15944  41.715  11.273  53.344
24021W        W15945  21.762   9.247  51.990
24022W        W15946  10.781  10.281  49.703
24023W        W15947  47.697  33.223  51.079
24024W        W15948   1.289  22.716  51.523
24025W        W15949   1.760  40.223  51.034
24026W        W15950  18.739   1.786  53.802
24027W        W15951  44.213   0.251  53.788
24028W        W15952   1.291   1.778  50.122
24029W        W15953   3.255   0.791  49.674
24030W        W15954   6.742  30.704  52.419
24031W        W15955   7.286   5.277  53.317
24032W        W15956  19.230   9.775  52.445
24033W        W15957  34.214   0.295  52.404
24034W        W15958  45.697  39.697  50.146
24035W        W15959  43.225  17.764  50.587
24036W        W15960   2.285   9.274  52.431
24037W        W15961  29.244  25.239  51.965
24038W        W15962  35.736  44.221  51.497
24039W        W15963   0.273  12.245  52.869
24040W        W15964  44.709  16.733  51.505
24041W        W15965  25.229   2.782  52.888
24042W        W15966   5.269  32.212  51.981
24043W        W15967  17.725   3.270  53.800
24044W        W15968   5.262   8.283  51.963
24045W        W15969  30.705  25.227  50.121
24046W        W15970  36.191  37.218  52.898
24047W        W15971  12.260  16.266  53.808
24048W        W15972  34.203  23.253  50.148
24049W        W15973  23.258  13.268  53.801
24050W        W15974  34.201  33.714  50.590
24051W        W15975   3.248  11.239  49.703
24052W        W15976  35.695  14.227  51.490
24053W        W15977   5.773  19.257  53.354
24054W        W15978  46.207  45.678  49.707
24055W        W15979  17.271  24.226  51.535
24056W        W15980  28.207  10.238  51.070
24057W        W15981  28.222  25.249  50.129
24058W        W15982  39.235   1.762  51.038
24059W        W15983  18.244  25.225  52.901
24060W        W15984   6.748  41.704  53.330
24061W        W15985   8.737  20.225  49.700
24062W        W15986   9.767  23.713  52.439
24063W        W15987  27.709  10.764  53.354
24064W        W15988  35.735  35.739  51.039
24065W        W15989   0.776   3.293  49.670
24066W        W15990  42.193  41.705  51.526
24067W        W15991  15.238   9.745  51.954
24068W        W15992  28.729   9.763  50.154
24069W        W15993  45.712  32.236  49.685
24070W        W15994  30.717  24.246  52.871
24071W        W15995  34.201  30.220  51.981
24072W        W15996   8.784   1.791  52.423
24073W        W15997  30.735  11.247  49.685
24074W        W15998  34.239   6.271  51.986
24075W        W15999  19.247  39.189  53.797
24076W        W16000  28.213  44.218  53.816
24077W        W16001  42.698  32.227  49.708
24078W        W16002  24.252  23.249  50.160
24079W        W16003  32.203  21.261  52.406
24080W        W16004  14.247  33.743  53.325
24081W        W16005  18.753   4.785  50.588
24082W        W16006   1.783   2.264  49.672
24083W        W16007  48.205   5.759  51.969
24084W        W16008  22.258  45.214  50.589
24085W        W16009  44.224  18.721  51.510
24086W        W16010  18.261  14.262  52.901
24087W        W16011  32.218  13.769  51.507
24088W        W16012  25.710  14.767  51.067
24089W        W16013   0.254   9.784  53.788
24090W        W16014  28.746  45.210  51.958
24091W        W16015  21.738   7.782  50.135
24092W        W16016  18.764  30.244  53.347
24093W        W16017  48.205  21.215  53.341
24094W        W16018  14.737   9.282  53.805
24095W        W16019  40.194  13.270  53.341
24096W        W16020  14.228  48.215  52.887
24097W        W16021  21.239  47.199  49.687
24098W        W16022  30.249   7.275  53.327
24099W        W16023  20.756  28.739  53.783
24100W        W16024  30.238   2.248  53.809
24101W        W16025  31.708  21.741  52.417
24102W        W16026   5.774   4.264  50.159
24103W        W16027  47.699  34.223  50.593
24104W        W16028  33.213  14.751  52.870
24105W        W16029  19.264  35.720  51.070
24106W        W16030   8.277  35.737  53.317
24107W        W16031  15.757  19.237  50.155
24108W        W16032   2.288  15.226  51.977
24109W        W16033   2.279  29.729  51.060
24110W        W16034  15.726  12.252  51.039
24111W        W16035  32.237   8.785  53.348
24112W        W16036   9.755  41.731  51.062
24113W        W16037  26.238  11.778  51.055
24114W        W16038  43.712   5.789  50.131
24115W        W16039  36.726   4.758  50.163
24116W        W16040  42.714  15.260  49.697
24117W        W16041  37.202  35.732  51.498
24118W        W16042  31.714  16.236  51.065
24119W        W16043  24.241  39.732  51.071
24120W        W16044  47.691  31.213  51.063
24121W        W16045   2.293  36.701  50.158
24122W        W16046  19.743  19.266  53.791
24123W        W16047   4.765  25.731  49.683
24124W        W16048   0.295  48.184  50.609
24125W        W16049   9.778  41.728  50.592
24126W        W16050  42.199  36.199  52.871
24127W        W16051  43.714  42.211  53.353
24128W        W16052  14.254  25.209  51.036
24129W        W16053  11.747   6.779  53.777
24130W        W16054  12.272  20.724  52.410
24131W        W16055   7.781   4.288  50.164
24132W        W16056  12.232  25.214  50.620
24133W        W16057  20.717  10.757  49.699
24134W        W16058  19.738  17.770  53.808
24135W        W16059  32.738  42.713  51.968
24136W        W16060  41.197  23.738  51.494
24137W        W16061  36.239   2.775  51.516
24138W        W16062   9.240  26.728  51.505
24139W        W16063   5.769  34.199  53.798
24140W        W16064  19.226   5.268  49.665
24141W        W16065  32.734  45.696  52.432
24142W        W16066   4.244   4.759  49.676
24143W        W16067  32.222  22.762  51.968
24144W        W16068   9.245   9.263  51.529
24145W        W16069  38.199  37.725  51.524
24146W        W16070  45.209  46.686  53.332
24147W        W16071  28.721  23.746  51.526
24148W        W16072  20.245  36.729  49.695
24149W        W16073  16.727  35.715  50.591
24150W        W16074   5.282  12.770  51.956
24151W        W16075  36.193  40.189  52.422
24152W        W16076  11.776  43.223  50.140
24153W        W16077  15.729  18.257  50.578
24154W        W16078  35.720  25.256  51.980
24155W        W16079  21.755  44.718  51.956
24156W        W16080  42.207  31.707  51.493
24157W        W16081  19.747  32.221  51.968
24158W        W16082  35.726  47.177  50.593
24159W        W16083  31.216  15.230  53.792
24160W        W16084   9.282  26.748  52.871
24161W        W16085  34.198  47.683  52.877
24162W        W16086  10.271   4.762  52.869
24163W        W16087   3.773   4.790  53.812
24164W        W16088  40.191  38.725  49.674
24165W        W16089  35.721  44.722  50.583
24166W        W16090  14.751  35.707  51.043
24167W        W16091   1.790  10.734  51.507
24168W        W16092  14.753   8.744  53.333
24169W        W16093  11.769  29.211  51.959
24170W        W16094  24.249  41.188  53.356
24171W        W16095  39.689  37.206  50.130
24172W        W16096  17.753  14.270  49.703
24173W        W16097  45.708  13.735  52.893
24174W        W16098  35.223  41.206  51.499
24175W        W16099  45.723  28.245  52.414
24176W        W16100  41.199  34.705  53.337
24177W        W16101  33.224   6.782  50.147
24178W        W16102  36.708  25.749  49.680
24179W        W16103  29.219  16.226  51.954
24180W        W16104   6.278  44.218  51.054
24181W        W16105  16.270  21.757  51.983
24182W        W16106  25.752   4.279  51.060
24183W        W16107  33.709  24.237  53.326
24184W        W16108  43.206  47.208  52.900
24185W        W16109   6.785  22.718  50.153
24186W        W16110  39.206  39.714  52.415
24187W        W16111  21.759  27.727  49.697
24188W        W16112  38.697  32.720  53.780
24189W        W16113  12.267  23.262  52.876
24190W        W16114  38.694  31.705  51.495
24191W        W16115  34.199  41.197  52.863
24192W        W16116  20.744  28.210  52.435
24193W        W16117  36.233  47.675  50.584
24194W        W16118  47.691  41.701  49.710
24195W        W16119  11.749   8.248  52.429
24196W        W16120  37.697  29.751  49.695
24197W        W16121  17.763  39.186  53.337
24198W        W16122  17.746  47.199  49.700
24199W        W16123  36.215  14.262  51.506
24200W        W16124  14.746   1.787  52.903
24201W        W16125   1.749  17.738  52.421
24202W        W16126  41.193  39.732  51.039
24203W        W16127  35.695  10.769  53.812
24204W        W16128  21.258   8.769  49.703
24205W        W16129  31.725   3.788  51.526
24206W        W16130  23.758  16.258  52.445
24207W        W16131  43.187  14.253  51.954
24208W        W16132  37.737  25.221  51.520
24209W        W16133  45.675  21.756  50.165
24210W        W16134   1.295  13.262  51.976
24211W        W16135  20.730  11.244  51.947
24212W        W16136  33.744  33.705  53.816
24213W        W16137  43.192  37.696  53.807
24214W        W16138  27.207  15.248  52.426
24215W        W16139  24.749  15.771  51.503
24216W        W16140   0.750  31.721  51.947
24217W        W16141  38.191  48.203  52.867
24218W        W16142  28.237  37.203  53.320
24219W        W16143  30.238  48.214  52.869
24220W        W16144  31.699  13.753  51.515
24221W        W16145  32.738  39.698  51.062
24222W        W16146   9.773  26.741  50.604
24223W        W16147  10.737  13.246  51.515
24224W        W16148  34.739   7.776  52.869
24225W        W16149  24.222  36.719  52.424
24226W        W16150  31.237  45.182  52.419
24227W        W16151  32.708  26.232  51.988
24228W        W16152  10.234  23.253  50.143
24229W        W16153  48.174  19.722  51.041
24230W        W16154  45.719   0.288  50.584
24231W        W16155  33.703  17.767  50.126
24232W        W16156  22.217  45.214  52.880
24233W        W16157  23.755  10.748  49.687
24234W        W16158  17.252  32.713  50.149
24235W        W16159  41.696  23.212  51.526
24236W        W16160  18.249   6.782  51.518
24237W        W16161  33.715  39.206  50.132
24238W        W16162  40.711  20.758  51.947
24239W        W16163  11.260   9.263  52.437
24240W        W16164   2.768  13.773  52.411
24241W        W16165  31.236  22.257  51.040
24242W        W16166   6.764   2.295  53.318
24243W        W16167   8.767   4.258  50.602
24244W        W16168   4.779  19.249  51.066
24245W        W16169  46.696  13.267  52.898
24246W        W16170  17.740  24.221  53.815
24247W        W16171   1.296  37.690  53.779
24248W        W16172  24.215   8.271  53.817
24249W        W16173  30.738  18.254  49.701
24250W        W16174  19.737   6.763  50.155
24251W        W16175  47.673  14.764  51.991
24252W        W16176  28.738  42.185  53.339
24253W        W16177  23.231  37.702  53.321
24254W        W16178  19.256  14.227  51.978
24255W        W16179  44.719  25.247  51.970
24256W        W16180  20.236   2.252  51.957
24257W        W16181   5.276  18.728  52.414
24258W        W16182  32.225  26.220  51.073
24259W        W16183  40.691   7.786  52.880
24260W        W16184  24.716  25.215  52.901
24261W        W16185  30.227  32.700  50.586
24262W        W16186  14.265  14.749  49.668
24263W        W16187  45.681   0.259  51.077
24264W        W16188  47.191  24.259  53.318
24265W        W16189  33.210   7.768  51.037
24266W        W16190  31.220   9.235  51.531
24267W        W16191  12.264  32.709  52.406
24268W        W16192  39.190  22.257  53.804
24269W        W16193  33.221  22.238  49.692
24270W        W16194  39.230  21.220  51.971
24271W        W16195  45.713  48.193  53.804
24272W        W16196   9.262   4.292  53.797
24273W        W16197  28.227  38.732  51.527
24274W        W16198  20.246   5.279  51.982
24275W        W16199  12.737  34.734  50.133
24276W        W16200  39.717  18.228  51.978
24277W        W16201  16.738   8.755  52.873
24278W        W16202  10.234   2.750  51.494
24279W        W16203   5.744   3.769  50.607
24280W        W16204  28.743  41.188  51.534
24281W        W16205  38.223  31.231  53.328
24282W        W16206  37.190  24.212  51.059
24283W        W16207  26.221  42.182  51.491
24284W        W16208  34.711  11.269  51.531
24285W        W16209  35.701   3.759  52.436
24286W        W16210  18.765  41.727  53.326
24287W        W16211  41.728  16.749  53.356
24288W        W16212  14.227  14.242  53.331
24289W        W16213  33.200  43.189  51.069
24290W        W16214  21.715  25.729  50.131
24291W        W16215  48.172  20.241  50.140
24292W        W16216  18.236  18.232  50.620
24293W        W16217  31.232  15.241  53.353
24294W        W16218  20.256  33.723  50.122
24295W        W16219  45.218  29.203  51.962
24296W        W16220  25.225  44.713  50.157
24297W        W16221   8.278  20.230  50.618
24298W        W16222  41.724  16.731  50.157
24299W        W16223  37.215  25.724  49.691
24300W        W16224  39.230  21.258  49.686
24301W        W16225  20.230  42.203  51.975
24302W        W16226  22.252  24.745  50.155
24303W        W16227   3.248  12.253  49.682
24304W        W16228  45.206  48.194  49.687
24305W        W16229   2.782  13.775  51.504
24306W        W16230  46.708  29.706  50.135
24307W        W16231   5.247   2.265  51.956
24308W        W16232  28.721   1.295  52.870
24309W        W16233  26.214  39.724  51.967
24310W        W16234   5.767  18.756  53.772
24311W        W16235  37.725  24.248  50.615
24312W        W16236  44.206  37.220  50.134
24313W        W16237  46.715  23.221  51.968
24314W        W16238   5.251   3.752  52.441
24315W        W16239   7.778  36.211  53.349
24316W        W16240  25.717  45.211  53.817
24317W        W16241   1.749   7.283  50.149
24318W        W16242  45.204  34.226  49.679
24319W        W16243  44.693  22.729  53.336
24320W        W16244  34.716  30.711  51.511
24321W        W16245   8.738  38.712  52.878
24322W        W16246  11.753  47.672  50.610
24323W        W16247   8.775  10.772  53.805
24324W        W16248  47.714   2.749  51.974
24325W        W16249  11.257  47.200  50.597
24326W        W16250   3.752   7.250  53.345
24327W        W16251   0.295  34.728  51.063
24328W        W16252  29.711  35.211  53.798
24329W        W16253  21.254  42.219  53.343
24330W        W16254  44.215   8.782  51.055
24331W        W16255  34.219   0.266  50.141
24332W        W16256  45.181  13.237  51.526
24333W        W16257  31.203  36.225  51.984
24334W        W16258  38.233   9.780  50.587
24335W        W16259   0.791  14.740  51.072
24336W        W16260  20.737  36.196  50.123
24337W        W16261  37.228  47.719  50.160
24338W        W16262  10.764  36.197  53.783
24339W        W16263  33.201   0.770  51.947
24340W        W16264  40.694  48.189  52.433
24341W        W16265  25.709  41.719  52.888
24342W        W16266  12.231   1.773  49.691
24343W        W16267   2.759   7.753  51.956
24344W        W16268  21.247  13.767  49.692
24345W        W16269   9.755   9.239  50.612
24346W        W16270  11.248   1.266  49.703
24347W        W16271  27.728  17.723  50.155
24348W        W16272  38.703  29.724  51.051
24349W        W16273  31.220  33.208  50.143
24350W        W16274   8.768  44.712  50.622
24351W        W16275  21.735  47.709  50.153
24352W        W16276  46.688  13.759  49.688
24353W        W16277  20.242  22.727  51.533
24354W        W16278  34.722  47.686  51.534
24355W        W16279   5.755   8.736  50.147
24356W        W16280  17.724  10.747  51.971
24357W        W16281  21.754  38.710  53.345
24358W        W16282  39.202   7.250  52.429
24359W        W16283  21.246  42.208  51.059
24360W        W16284  41.693  34.726  51.946
24361W        W16285   1.781  32.223  50.160
24362W        W16286  29.205  24.736  51.948
24363W        W16287  25.728  21.726  51.991
24364W        W16288  39.222  30.216  51.519
24365W        W16289  28.244   3.750  49.671
24366W        W16290  11.245  31.747  51.497
24367W        W16291  14.275  33.224  50.593
24368W        W16292  27.739  12.765  52.436
24369W        W16293  23.237   0.770  49.677
24370W        W16294  37.694  20.264  52.883
24371W        W16295  41.217   3.258  50.608
24372W        W16296  38.719  11.732  50.147
24373W        W16297  41.727  36.693  53.341
24374W        W16298  23.215  31.244  53.772
24375W        W16299   2.269   7.780  50.140
24376W        W16300  16.258  16.734  50.136
24377W        W16301  33.233   7.270  53.775
24378W        W16302  46.218  39.200  53.788
24379W        W16303  44.212  43.225  51.074
24380W        W16304  40.195  15.234  50.612
24381W        W16305  35.721  17.231  50.622
24382W        W16306  10.245  22.229  51.039
24383W        W16307  45.224  18.735  50.587
24384W        W16308  36.193  11.769  53.348
24385W        W16309  32.733  39.685  50.592
24386W        W16310  31.707  44.722  50.147
24387W        W16311   6.276  20.240  50.599
24388W        W16312  44.180  39.722  51.950
24389W        W16313  10.751  35.701  53.358
24390W        W16314  45.179  36.729  51.050
24391W        W16315  30.238  37.212  50.596
24392W        W16316  23.758  32.237  53.805
24393W        W16317  22.227   7.240  53.777
24394W        W16318   9.235   5.250  51.507
24395W        W16319  14.272  12.278  53.802
24396W        W16320  48.194   1.256  51.069
24397W        W16321  11.249  35.194  51.075
24398W        W16322  29.246   4.784  51.505
24399W        W16323   1.290  30.242  50.600
24400W        W16324  29.720  46.705  53.801
24401W        W16325  47.204   5.271  52.885
24402W        W16326  26.736   6.784  50.593
24403W        W16327   9.746   7.778  51.990
24404W        W16328  25.257  14.762  50.140
24405W        W16329  39.213  14.756  50.149
24406W        W16330  33.220   2.788  50.121
24407W        W16331  12.740  13.249  53.816
24408W        W16332  42.205   8.285  53.330
24409W        W16333  10.777  27.234  51.970
24410W        W16334   4.268  22.230  53.321
24411W        W16335  36.237   5.741  49.705
24412W        W16336  16.248   1.790  51.973
24413W        W16337  39.710  28.217  50.128
24414W        W16338  11.246  17.247  53.344
24415W        W16339   7.259  19.725  51.972
24416W        W16340  18.263  18.740  53.335
24417W        W16341  31.242   0.796  51.058
24418W        W16342  22.731   0.796  50.583
24419W        W16343   1.781  35.733  51.510
24420W        W16344  11.753   6.259  52.445
24421W        W16345  44.724   9.746  51.966
24422W        W16346   9.768   5.257  51.991
24423W        W16347  43.209  44.679  53.352
24424W        W16348  22.738  21.760  53.342
24425W        W16349  15.735   5.288  52.404
24426W        W16350   5.751  25.716  52.899
24427W        W16351   8.237  16.251  52.408
24428W        W16352   0.781  23.729  52.891
24429W        W16353   4.782  13.260  49.680
24430W        W16354  47.706   1.292  50.161
24431W        W16355  19.747  21.750  52.860
24432W        W16356   2.771  21.239  51.065
24433W        W16357  43.701  43.188  51.070
24434W        W16358  21.231  42.684  50.618
24435W        W16359   5.763   7.747  51.523
24436W        W16360  28.244  15.759  51.991
24437W        W16361  31.216  16.751  53.329
24438W        W16362   5.767  27.254  51.964
24439W        W16363  28.239   8.763  52.421
24440W        W16364   3.287  30.227  51.064
24441W        W16365  24.226  22.256  52.403
24442W        W16366  33.227  47.713  51.503
24443W        W16367  31.205  31.737  53.775
24444W        W16368  39.716  28.751  50.149
24445W        W16369  24.247  48.197  51.049
24446W        W16370  39.231  33.737  49.700
24447W        W16371   0.260   2.291  51.980
24448W        W16372  21.265  19.265  53.783
24449W        W16373  39.714  32.729  53.785
24450W        W16374  14.230  13.270  49.695
24451W        W16375   7.256   7.271  51.980
24452W        W16376  17.244  45.678  53.790
24453W        W16377  44.724  26.225  53.779
24454W        W16378  32.240  23.224  51.065
24455W        W16379  34.195  26.734  50.129
24456W        W16380  47.711  31.702  53.329
24457W        W16381  30.235  42.724  51.501
24458W        W16382  34.218  25.224  51.526
24459W        W16383  16.247  19.255  51.045
24460W        W16384  14.764  29.239  53.335
24461W        W16385  36.201   1.786  52.437
24462W        W16386   7.271  16.240  52.874
24463W        W16387  19.758   1.249  50.582
24464W        W16388  38.208  17.763  51.071
24465W        W16389  17.733  28.708  50.587
24466W        W16390   0.255  40.188  51.956
24467W        W16391   0.293  36.731  53.803
24468W        W16392  30.234  13.232  53.815
24469W        W16393  34.728  31.699  50.600
24470W        W16394  31.239  25.712  52.905
24471W        W16395  45.192  17.770  52.406
24472W        W16396   9.735   8.277  51.051
24473W        W16397  38.688  40.196  51.532
24474W        W16398  33.217  17.231  52.875
24475W        W16399  11.260  28.706  51.048
24476W        W16400  38.734  20.252  50.616
24477W        W16401  48.176   3.781  51.504
24478W        W16402  11.731  20.236  51.509
24479W        W16403  19.232  18.737  51.951
24480W        W16404  30.736  36.206  51.498
24481W        W16405   9.760  45.217  51.042
24482W        W16406  21.729  45.176  52.439
24483W        W16407   0.769   6.782  51.492
24484W        W16408  20.763   4.272  51.063
24485W        W16409  44.700  43.725  52.902
24486W        W16410  21.743  42.683  49.703
24487W        W16411  34.238  28.221  52.418
24488W        W16412  31.228  11.254  53.800
24489W        W16413  13.753  18.256  52.870
24490W        W16414   9.248  29.238  53.319
24491W        W16415  44.724  11.242  52.900
24492W        W16416  19.222  27.254  52.435
24493W        W16417  38.209  42.223  53.802
24494W        W16418  40.712  15.257  51.045
24495W        W16419  17.225   0.278  53.348
24496W        W16420  30.746  37.701  51.064
24497W        W16421   5.257  16.271  52.442
24498W        W16422  22.229   5.751  53.343
24499W        W16423  12.252  27.720  52.900
24500W        W16424  46.186  31.240  50.125
24501W        W16425  37.718  42.218  53.792
24502W        W16426  48.175  37.698  52.440
24503W        W16427  30.744  27.736  51.056
24504W        W16428   6.773  45.696  52.889
24505W        W16429  18.240   7.283  51.968
24506W        W16430  22.716   5.777  52.880
24507W        W16431  40.190  20.742  53.775
24508W        W16432  11.267  47.684  50.122
24509W        W16433  18.224  41.227  53.352
24510W        W16434   9.756  34.203  53.328
24511W        W16435  47.189  38.707  51.044
24512W        W16436  17.245  16.242  49.696
24513W        W16437  47.198  22.741  51.047
24514W        W16438  33.236  33.724  51.078
24515W        W16439   9.779  21.724  49.689
24516W        W16440  47.205  46.691  51.532
24517W        W16441  28.206  32.700  53.789
24518W        W16442  41.719  47.699  53.816
24519W        W16443  16.733  23.721  53.332
24520W        W16444  40.699   3.291  53.344
24521W        W16445  31.717  11.738  50.593
24522W        W16446   7.778  33.732  52.406
24523W        W16447  17.231  44.723  52.887
24524W        W16448   4.780  23.719  50.126
24525W        W16449  10.741  11.734  53.808
24526W        W16450  30.709  11.273  52.414
24527W        W16451  15.769   4.260  51.515
24528W        W16452   5.284  26.719  51.036
24529W        W16453  21.716  13.235  49.682
24530W        W16454   4.783  10.242  50.588
24531W        W16455   2.792   9.773  52.435
24532W        W16456  37.693  30.232  52.897
24533W        W16457  11.252  12.233  51.040
24534W        W16458  44.219  36.216  51.962
24535W        W16459  32.728   1.763  51.976
24536W        W16460  40.207  41.725  53.773
24537W        W16461  33.219  24.242  52.424
24538W        W16462  41.721   6.753  52.444
24539W        W16463  22.255  40.216  53.358
24540W        W16464  14.253  35.725  51.512
24541W        W16465  45.203  36.219  52.871
24542W        W16466   8.737  11.245  50.592
24543W        W16467  40.707  12.254  49.685
24544W        W16468  42.721  41.718  51.051
24545W        W16469  22.741  35.222  51.078
24546W        W16470  23.215  14.247  51.534
24547W        W16471  32.240   9.243  53.786
24548W        W16472  13.271  19.264  53.780
24549W        W16473   5.243  25.226  50.131
24550W        W16474  29.717   4.251  51.047
24551W        W16475  30.246  27.729  51.974
24552W        W16476  39.222  10.774  52.422
24553W        W16477   0.789  22.741  50.580
24554W        W16478   1.261  22.749  49.708
24555W        W16479  35.225  31.731  51.049
24556W        W16480  36.221  47.698  51.066
24557W        W16481  24.735  12.238  53.802
24558W        W16482  12.754  26.253  52.880
24559W        W16483  28.742  40.698  52.871
24560W        W16484  34.242  16.766  51.521
24561W        W16485   9.245  39.706  53.341
24562W        W16486   1.278  33.743  51.506
24563W        W16487  47.218  35.229  51.957
24564W        W16488  30.716  21.748  51.529
24565W        W16489  45.724  27.731  50.121
24566W        W16490   2.792  14.759  51.972
24567W        W16491  15.269  39.731  52.879
24568W        W16492  14.237  47.203  49.685
24569W        W16493  13.753   7.264  51.517
24570W        W16494  16.229  31.207  52.420
24571W        W16495  48.198   0.785  50.155
24572W        W16496  13.738  10.281  51.042
24573W        W16497  40.210  15.745  53.358
24574W        W16498  34.220  42.230  52.899
24575W        W16499  45.711   7.774  52.873
24576W        W16500  28.226  42.189  52.428
24577W        W16501  19.263   4.281  50.613
24578W        W16502  32.742  21.744  53.773
24579W        W16503   3.259  19.740  53.337
24580W        W16504   8.759  34.740  49.667
24581W        W16505  43.225  33.197  51.059
24582W        W16506  47.692  12.251  50.149
24583W        W16507   0.273  25.710  51.514
24584W        W16508   5.284  23.742  51.501
24585W        W16509   7.787  16.240  50.140
24586W        W16510  25.247  33.216  50.156
24587W        W16511  31.731   6.277  52.419
24588W        W16512  20.219  13.743  50.152
24589W        W16513  12.736   5.777  51.053
24590W        W16514  29.709  41.208  50.151
24591W        W16515  20.266  42.713  50.157
24592W        W16516  33.699  11.247  49.691
24593W        W16517  29.712   8.743  53.329
24594W        W16518  36.208  39.189  51.076
24595W        W16519  13.749  14.254  51.953
24596W        W16520   8.283  22.724  52.885
24597W        W16521  32.706  28.711  52.879
24598W        W16522  36.222  46.713  50.593
24599W        W16523  16.762  39.727  49.681
24600W        W16524  45.680  40.228  52.862
24601W        W16525  20.754  10.280  51.059
24602W        W16526  36.205  25.719  51.953
24603W        W16527  21.731  43.210  49.666
24604W        W16528  16.733  45.208  51.052
24605W        W16529  31.216   6.769  52.439
24606W        W16530  25.244  21.739  53.356
24607W        W16531  37.235   2.780  52.887
24608W        W16532  18.724  41.687  50.602
24609W        W16533   9.252  22.226  53.772
24610W        W16534  25.246  26.735  53.787
24611W        W16535  39.213  47.697  51.519
24612W        W16536  27.736  37.199  51.074
24613W        W16537  38.693  32.214  51.052
24614W        W16538  23.214  11.259  49.684
24615W        W16539  17.721  25.740  52.903
24616W        W16540   9.776   8.779  52.403
24617W        W16541   9.739  19.236  52.891
24618W        W16542  11.777   9.259  51.978
24619W        W16543   7.763   6.787  51.078
24620W        W16544  38.201   2.753  53.352
24621W        W16545  21.763  27.217  51.953
24622W        W16546  46.195  16.232  53.354
24623W        W16547  42.710  17.257  51.975
24624W        W16548   7.752  18.724  52.862
24625W        W16549   0.282  19.734  52.885
24626W        W16550  28.725  25.209  50.584
24627W        W16551   1.286  23.258  51.513
24628W        W16552  11.262  48.181  51.973
24629W        W16553  23.256  23.244  50.159
24630W        W16554   6.746  31.700  50.123
24631W        W16555  20.742  17.243  53.803
24632W        W16556   9.251   0.266  49.709
24633W        W16557  37.696  22.746  53.806
24634W        W16558  41.695   5.273  50.145
24635W        W16559  16.245  10.778  51.948
24636W        W16560  15.241  18.252  50.159
24637W        W16561   8.742  23.225  52.442
24638W        W16562   6.781  24.226  52.901
24639W        W16563  19.733  43.695  51.500
24640W        W16564  21.718  46.212  50.136
24641W        W16565  32.201  43.715  51.981
24642W        W16566   3.788   7.251  51.961
24643W        W16567  34.211   3.755  51.513
24644W        W16568  31.740  19.731  49.686
24645W        W16569   0.284   9.767  50.589
24646W        W16570  16.747  12.230  50.135
24647W        W16571  21.261  20.747  51.985
24648W        W16572   4.252   8.246  52.864
24649W        W16573   1.753  21.260  51.057
24650W        W16574  21.723  31.703  53.319
24651W        W16575   7.767  33.240  52.409
24652W        W16576   6.252   2.765  53.323
24653W        W16577   8.253  33.722  53.780
24654W        W16578  37.229  37.734  52.448
24655W        W16579  18.754  22.254  51.036
24656W        W16580  23.738  13.232  49.666
24657W        W16581  21.248   2.784  52.414
24658W        W16582   5.249  40.729  49.680
24659W        W16583  35.737   2.769  52.897
24660W        W16584  29.229  37.714  52.881
24661W        W16585  39.191  34.218  53.801
24662W        W16586  31.230  21.262  53.344
24663W        W16587  36.725  45.688  52.864
24664W        W16588   6.280   3.792  52.881
24665W        W16589  27.244  21.757  50.583
24666W        W16590  39.719  42.706  50.144
24667W        W16591  39.699   7.258  52.884
24668W        W16592  14.263  13.760  53.805
24669W        W16593  29.741  38.707  50.164
24670W        W16594   0.278   6.266  53.800
24671W        W16595   2.746  34.726  52.905
24672W        W16596  29.719  42.209  51.518
24673W        W16597  18.238  32.733  50.153
24674W        W16598  27.249   9.744  51.519
24675W        W16599  38.219  23.756  53.347
24676W        W16600  46.709   0.794  51.522
24677W        W16601  20.741  15.742  53.806
24678W        W16602   1.756  47.696  49.670
24679W        W16603   7.753  32.706  53.787
24680W        W16604  29.211  38.230  52.861
24681W        W16605  16.766  24.725  53.810
24682W        W16606  17.765   6.262  53.335
24683W        W16607  36.238  21.735  53.322
24684W        W16608  27.239  12.732  50.615
24685W        W16609  45.684  34.224  52.435
24686W        W16610  21.744  10.749  51.959
24687W        W16611  32.220   9.265  49.684
24688W        W16612  17.268  18.266  51.038
24689W        W16613   2.769  36.732  51.957
24690W        W16614  46.207  30.710  52.863
24691W        W16615  19.255  17.259  49.684
24692W        W16616  37.695  25.745  51.961
24693W        W16617  23.734  44.719  52.407
24694W        W16618  31.207  28.238  51.065
24695W        W16619  34.709  18.226  50.163
24696W        W16620  29.222  22.754  53.343
24697W        W16621   4.758  28.750  51.987
24698W        W16622  30.240  13.237  50.156
24699W        W16623  33.697   5.747  50.619
24700W        W16624  36.731  23.731  51.078
24701W        W16625  26.254  26.211  52.424
24702W        W16626  24.731  42.204  52.425
24703W        W16627  10.272  32.209  52.422
24704W        W16628  21.757  41.229  51.495
24705W        W16629  19.265  22.738  49.683
24706W        W16630   3.777  39.227  49.690
24707W        W16631  45.691  14.247  52.876
24708W        W16632  47.193  34.732  53.320
24709W        W16633  31.728  39.226  53.784
24710W        W16634  16.272  45.714  49.688
24711W        W16635  29.734  41.224  52.894
24712W        W16636  29.217  47.217  50.604
24713W        W16637  13.734   8.253  52.426
24714W        W16638  32.719  29.747  51.065
24715W        W16639   5.249   1.763  53.320
24716W        W16640  42.704  11.771  53.353
24717W        W16641  26.237   3.775  50.128
24718W        W16642  19.759  41.724  52.418
24719W        W16643   3.267   9.280  50.604
24720W        W16644  42.180   3.288  53.813
24721W        W16645  12.243  47.713  52.867
24722W        W16646  22.727   0.797  50.147
24723W        W16647  30.210  35.725  51.061
24724W        W16648   5.285  10.260  50.146
24725W        W16649  39.192  12.734  51.510
24726W        W16650  27.231  42.727  52.897
24727W        W16651   4.756  36.198  50.121
24728W        W16652  30.741  19.740  53.340
24729W        W16653   3.272  32.217  51.039
24730W        W16654  26.748  22.232  53.344
24731W        W16655  27.226  37.737  52.431
24732W        W16656   1.763  39.715  52.408
24733W        W16657  28.205  26.249  53.328
24734W        W16658  42.707  30.249  52.900
24735W        W16659  35.219  19.721  51.520
24736W        W16660   0.759  16.734  52.867
24737W        W16661   9.258  10.744  53.319
24738W        W16662  34.224  48.183  52.443
24739W        W16663   2.289   1.788  51.953
24740W        W16664   5.773   1.257  51.046
24741W        W16665  10.765  31.241  53.335
24742W        W16666  15.758  16.760  52.864
24743W        W16667  42.198  23.757  51.530
24744W        W16668  22.735  45.217  53.323
24745W        W16669  18.741   7.275  53.337
24746W        W16670  46.209  46.690  51.531
24747W        W16671  30.230  45.716  51.043
24748W        W16672  24.719   1.297  53.797
24749W        W16673  12.230  27.226  52.413
24750W        W16674  17.225  23.735  50.125
24751W        W16675   9.265  46.196  49.699
24752W        W16676  23.738  34.703  51.979
24753W        W16677  30.721   2.789  53.357
24754W        W16678  47.672   1.773  52.860
24755W        W16679  45.218  45.178  49.698
24756W        W16680  29.722  37.700  52.446
24757W        W16681  48.196  37.233  52.861
24758W        W16682  21.242  17.746  50.606
24759W        W16683   6.773  48.200  50.579
24760W        W16684   0.754  28.709  53.805
24761W        W16685   0.753   2.791  49.704
24762W        W16686  27.236  30.704  53.775
24763W        W16687  36.716  36.710  52.896
24764W        W16688  33.696   5.744  52.891
24765W        W16689  33.242  38.698  51.034
24766W        W16690   3.777   1.268  51.968
24767W        W16691  13.776  35.714  52.423
24768W        W16692   9.772  12.742  51.506
24769W        W16693  37.736  43.188  51.987
24770W        W16694  34.730  25.738  50.582
24771W        W16695  45.708  35.207  49.678
24772W        W16696  45.184  20.728  52.441
24773W        W16697   6.264  15.766  53.335
24774W        W16698  30.237  47.212  52.869
24775W        W16699  40.200  35.198  52.444
24776W        W16700  31.200   0.293  50.145
24777W        W16701   1.789  40.728  51.987
24778W        W16702   9.242  14.264  52.448
24779W        W16703   1.276  12.738  52.873
24780W        W16704   6.284   9.760  51.501
24781W        W16705  48.220  47.699  51.532
24782W        W16706  44.677  18.243  52.866
24783W        W16707  40.694  25.749  52.406
24784W        W16708  38.726  43.217  51.950
24785W        W16709  15.246  22.230  52.414
24786W        W16710  31.236  36.201  51.076
24787W        W16711  45.676  37.229  50.596
24788W        W16712   5.787  10.253  51.501
24789W        W16713  22.741   2.254  52.429
24790W        W16714   1.259  30.733  51.072
24791W        W16715  30.721   1.754  53.776
24792W        W16716   4.275  40.229  51.059
24793W        W16717   5.790  24.734  52.436
24794W        W16718  25.745   3.751  51.495
24795W        W16719  19.722  43.211  49.697
24796W        W16720  45.716  44.680  51.035
24797W        W16721   2.264  28.243  52.433
24798W        W16722  33.235  39.701  49.669
24799W        W16723  20.720  46.690  53.798
24800W        W16724  16.253   9.241  49.692
24801W        W16725  42.716   3.277  53.774
24802W        W16726  46.213  11.741  52.877
24803W        W16727   5.264  21.724  53.317
24804W        W16728  40.701   1.792  53.352
24805W        W16729  10.278   2.292  53.327
24806W        W16730   9.276  31.734  50.618
24807W        W16731  31.730  39.209  50.166
24808W        W16732  16.268   6.782  50.155
24809W        W16733  33.207  25.753  49.689
24810W        W16734  25.716  16.726  51.527
24811W        W16735  23.232  30.246  52.860
24812W        W16736  29.241   0.282  51.977
24813W        W16737   7.285  37.195  52.429
24814W        W16738   9.754  36.715  51.503
24815W        W16739  19.249  27.213  50.620
24816W        W16740  15.772  20.765  51.063
24817W        W16741  15.268  24.739  51.057
24818W        W16742  37.696  24.223  53.797
24819W        W16743  44.679   9.263  52.897
24820W        W16744  28.745  29.741  51.984
24821W        W16745  37.694   5.276  50.166
24822W        W16746  20.223  29.747  49.694
24823W        W16747  26.219  13.755  53.326
24824W        W16748  38.701  30.244  49.708
24825W        W16749  13.270  33.733  50.124
24826W        W16750  43.224   6.771  51.953
24827W        W16751   4.759  26.245  52.888
24828W        W16752   1.749  16.241  51.962
24829W        W16753  23.216   9.749  50.161
24830W        W16754   8.282  44.716  51.512
24831W        W16755  15.736  24.758  50.156
24832W        W16756  45.693  36.705  53.796
24833W        W16757  12.268  33.226  50.152
24834W        W16758   1.771  26.246  50.125
24835W        W16759  35.192  28.209  53.337
24836W        W16760  31.724   6.775  50.580
24837W        W16761   8.780  10.252  49.684
24838W        W16762   3.746  12.271  49.709
24839W        W16763  31.205  36.720  53.786
24840W        W16764  15.751  21.743  53.780
24841W        W16765   1.755   1.279  50.605
24842W        W16766  11.760  31.731  52.408
24843W        W16767   5.254  22.751  50.143
24844W        W16768  27.234  21.734  52.898
24845W        W16769  40.215  29.203  50.142
24846W        W16770  31.729  12.259  50.123
24847W        W16771  29.229  39.212  51.949
24848W        W16772   0.782  38.701  53.327
24849W        W16773   3.286  27.227  50.614
24850W        W16774  27.741   6.270  50.577
24851W        W16775  32.735  20.257  52.411
24852W        W16776  17.234   5.774  52.420
24853W        W16777   6.254  12.738  51.983
24854W        W16778  20.239  14.239  51.528
24855W        W16779  25.229  39.187  53.322
24856W        W16780  34.720  13.758  53.338
24857W        W16781  20.265  34.221  53.776
24858W        W16782  23.728  46.674  49.704
24859W        W16783  24.714  20.743  51.071
24860W        W16784  22.743   1.275  51.497
24861W        W16785  45.198   1.288  49.683
24862W        W16786  38.716  31.730  52.870
24863W        W16787  47.205  24.259  50.595
24864W        W16788   5.765   6.277  50.122
24865W        W16789  15.728  30.730  50.597
24866W        W16790  15.729  42.723  51.040
24867W        W16791  37.219  40.725  51.955
24868W        W16792  32.204  27.728  49.708
24869W        W16793  33.718  28.708  49.709
24870W        W16794  22.218  34.221  52.415
24871W        W16795  23.253  40.692  53.355
24872W        W16796  20.716   7.245  52.902
24873W        W16797  30.216  26.223  51.050
24874W        W16798  23.254  22.742  53.794
24875W        W16799  37.709  31.719  49.679
24876W        W16800   4.747   4.748  52.429
24877W        W16801  29.735  47.176  50.586
24878W        W16802  35.213  25.232  52.892
24879W        W16803   1.290  41.706  53.345
24880W        W16804   4.267   1.281  49.686
24881W        W16805  46.707   1.281  51.064
24882W        W16806  35.710   8.748  50.598
24883W        W16807  43.711  35.696  51.067
24884W        W16808   6.781  47.207  49.668
24885W        W16809  37.222  25.219  53.802
24886W        W16810  16.727  30.227  52.436
24887W        W16811   5.742  44.721  50.608
24888W        W16812   1.297  20.266  51.492
24889W        W16813  29.717  37.691  51.515
24890W        W16814  11.734  30.707  53.316
24891W        W16815   0.769  29.738  53.791
24892W        W16816   2.275   7.275  53.331
24893W        W16817   3.274   2.250  51.514
24894W        W16818  21.762   8.250  51.978
24895W        W16819  43.202  37.708  49.699
24896W        W16820  33.718  34.728  52.905
24897W        W16821  47.685  40.215  51.490
24898W        W16822   3.255  42.190  51.510
24899W        W16823  39.226  38.706  50.597
24900W        W16824  30.236   9.747  53.332
24901W        W16825  15.732  14.763  51.503
24902W        W16826  27.746   3.261  50.599
24903W        W16827  36.714  30.744  52.417
24904W        W16828  38.234  39.212  50.123
24905W        W16829  48.196  46.216  50.132
24906W        W16830  27.222  13.731  52.423
24907W        W16831   4.760   3.265  51.517
24908W        W16832  16.743   6.270  51.948
24909W        W16833  14.728   7.276  52.441
24910W        W16834  10.756  37.704  51.950
24911W        W16835  47.715   5.753  50.602
24912W        W16836   5.261  39.730  52.435
24913W        W16837  26.756  22.754  49.686
24914W        W16838  37.692   8.766  51.521
24915W        W16839  32.739  36.718  51.043
24916W        W16840   7.275  44.199  49.668
24917W        W16841  32.231   8.752  50.598
24918W        W16842   0.797  32.728  52.887
24919W        W16843  31.205   7.243  50.152
24920W        W16844  33.704  30.702  50.148
24921W        W16845   9.255  31.247  53.326
24922W        W16846   2.269  12.763  51.051
24923W        W16847  10.251  24.256  53.318
24924W        W16848  15.244  40.232  51.960
24925W        W16849   5.263   3.269  50.587
24926W        W16850   9.243  16.227  50.590
24927W        W16851  48.190  16.735  50.598
24928W        W16852  30.213  38.202  50.166
24929W        W16853  15.770   5.254  50.612
24930W        W16854   0.252   1.788  49.699
24931W        W16855  10.757  18.249  53.794
24932W        W16856  19.258  24.744  53.356
24933W        W16857   2.747  18.756  49.671
24934W        W16858  47.720  34.225  51.057
24935W        W16859  20.251  37.197  51.978
24936W        W16860  22.241  36.237  50.156
24937W        W16861  25.232  11.762  49.690
24938W        W16862  16.238  40.693  51.054
24939W        W16863  13.752  31.740  53.799
24940W        W16864   1.756   7.261  52.893
24941W        W16865  32.744  17.268  53.796
24942W        W16866  28.712  47.701  52.877
24943W        W16867  19.739  48.177  51.058
24944W        W16868   9.267   9.271  53.781
24945W        W16869  38.702  24.218  52.903
24946W        W16870  17.225  29.736  50.581
24947W        W16871  45.687  46.682  51.525
24948W        W16872  10.264  27.208  51.060
24949W        W16873  35.220  30.207  49.672
24950W        W16874  10.749   9.275  52.866
24951W        W16875  35.195  14.751  51.531
24952W        W16876  30.243  32.746  52.443
24953W        W16877  34.201   7.259  53.343
24954W        W16878  12.749   1.269  53.338
24955W        W16879   1.274  44.700  50.584
24956W        W16880  23.221  12.775  52.437
24957W        W16881  41.221  30.212  52.448
24958W        W16882  45.188  33.222  51.035
24959W        W16883  12.268  41.684  50.583
24960W        W16884  25.256  38.693  53.343
24961W        W16885   5.763  33.720  51.493
24962W        W16886  38.205  47.209  51.514
24963W        W16887   7.763  16.262  53.358
24964W        W16888  34.698  20.259  51.077
24965W        W16889  40.695  22.713  51.525
24966W        W16890  16.766  30.241  53.806
24967W        W16891  38.728   7.242  51.516
24968W        W16892  42.181  20.738  50.616
24969W        W16893  29.217   8.246  53.815
24970W        W16894  23.236  19.259  52.409
24971W        W16895  10.276   9.767  51.036
24972W        W16896  38.191  11.254  51.054
24973W        W16897   3.754   2.774  51.532
24974W        W16898  27.722   1.791  51.968
24975W        W16899   6.277   2.289  50.155
24976W        W16900   2.270   8.772  52.861
24977W        W16901  13.233  17.739  51.954
24978W        W16902  13.273  21.257  50.147
24979W        W16903   2.786   5.274  53.782
24980W        W16904   2.255  37.208  51.493
24981W        W16905  12.245  46.721  50.582
24982W        W16906  31.212   9.738  50.612
24983W        W16907  27.737  46.710  51.060
24984W        W16908  34.241  23.746  50.154
24985W        W16909  10.744   0.289  52.864
24986W        W16910  21.755  34.730  51.982
24987W        W16911  45.695  20.254  51.949
24988W        W16912  20.262  29.737  52.444
24989W        W16913   3.285  13.229  53.785
24990W        W16914   3.286  28.727  50.155
24991W        W16915  44.682  23.251  51.989
24992W        W16916   8.742  24.253  51.526
24993W        W16917   1.766  16.232  52.442
24994W        W16918  45.185  24.259  53.326
24995W        W16919  41.200  24.236  51.047
24996W        W16920  23.237  14.261  50.589
24997W        W16921  35.199  37.237  51.070
24998W        W16922   5.257  30.726  49.667
24999W        W16923  20.752  36.735  52.420
25000W        W16924  15.770  21.242  50.585
25001W        W16925  19.754  18.243  52.406
25002W        W16926  42.184  13.240  51.519
25003W        W16927   3.251  36.701  51.510
25004W        W16928  22.724  24.253  50.125
25005W        W16929  47.206  43.202  51.531
25006W        W16930  21.759  16.252  50.126
25007W        W16931  23.736  11.259  51.495
25008W        W16932  36.234  26.228  53.805
25009W        W16933  39.712  20.745  52.425
25010W        W16934  35.206  46.211  53.349
25011W        W16935  46.186   9.253  49.686
25012W        W16936  21.745   5.281  51.949
25013W        W16937  17.245  47.200  53.813
25014W        W16938  16.771  16.233  51.043
25015W        W16939  21.734   3.746  49.707
25016W        W16940  39.720   9.739  50.614
25017W        W16941  16.760   0.786  53.781
25018W        W16942   8.269  46.197  51.968
25019W        W16943  26.726  35.230  51.526
25020W        W16944  39.705   8.239  52.896
25021W        W16945  28.747  23.245  52.410
25022W        W16946   9.263  31.736  52.890
25023W        W16947  32.725  17.747  50.134
25024W        W16948   5.760  21.228  53.810
25025W        W16949   8.261   8.278  53.322
25026W        W16950   0.793  45.207  53.797
25027W        W16951   2.280  21.735  51.046
25028W        W16952  32.709  29.224  51.502
25029W        W16953  19.237  40.694  51.511
25030W        W16954  26.236  44.203  51.967
25031W        W16955   4.265  12.743  52.896
25032W        W16956   5.251  25.726  49.664
25033W        W16957  23.756  23.239  51.525
25034W        W16958  13.767  44.214  50.612
25035W        W16959  33.197   3.268  51.511
25036W        W16960  13.755  19.255  50.580
25037W        W16961   4.768  25.711  50.619
25038W        W16962  19.761  25.237  49.702
25039W        W16963   8.779  41.185  51.057
25040W        W16964   1.273   6.787  52.868
25041W        W16965  19.226   7.762  53.815
25042W        W16966  13.273   8.275  49.700
25043W        W16967  44.686   4.256  51.510
25044W        W16968  46.701  27.718  51.491
25045W        W16969   3.749  16.233  50.601
25046W        W16970  31.247  41.703  51.495
25047W        W16971  25.732  38.210  51.974
25048W        W16972   4.291  34.708  51.068
25049W        W16973  12.270  16.232  51.530
25050W        W16974  27.206  41.203  51.072
25051W        W16975   9.784  17.251  51.064
25052W        W16976  39.723  27.716  53.353
25053W        W16977  43.199  20.747  50.603
25054W        W16978  33.228   4.790  51.989
25055W        W16979  23.748  45.218  52.881
25056W        W16980   9.268   8.256  50.125
25057W        W16981   6.752  34.716  52.900
25058W        W16982  37.235  12.239  53.812
25059W        W16983   3.787   9.749  50.610
25060W        W16984  44.722  29.712  53.319
25061W        W16985  46.219  20.718  49.700
25062W        W16986  25.216  13.243  52.887
25063W        W16987   2.764  11.740  52.888
25064W        W16988  35.199  18.232  51.959
25065W        W16989  33.217   9.760  50.148
25066W        W16990  47.682  18.243  50.587
25067W        W16991   6.258   2.290  53.359
25068W        W16992  12.757  14.267  50.608
25069W        W16993  20.219  37.718  51.534
25070W        W16994  43.221  35.720  53.791
25071W        W16995  32.197  16.756  51.518
25072W        W16996  47.699  44.725  53.777
25073W        W16997   7.249  23.747  51.526
25074W        W16998  43.687  48.196  53.316
25075W        W16999  39.728  30.746  51.975
25076W        W17000   3.267  28.212  49.692
25077W        W17001  44.684  15.758  53.784
25078W        W17002   9.782  34.695  52.408
25079W        W17003  21.718  37.191  49.701
25080W        W17004  19.758  21.741  51.035
25081W        W17005  31.217  31.216  53.317
25082W        W17006  16.263  27.718  50.578
25083W        W17007   3.287  40.715  52.882
25084W        W17008  47.180   0.771  51.986
25085W        W17009   4.786  38.719  50.158
25086W        W17010  16.248   4.777  51.990
25087W        W17011   8.747  22.255  49.685
25088W        W17012  41.217  28.726  52.871
25089W        W17013  21.747   0.775  50.150
25090W        W17014  15.750  34.226  51.518
25091W        W17015  18.265  38.710  50.596
25092W        W17016  10.774  32.703  51.040
25093W        W17017  34.221  21.248  50.154
25094W        W17018  23.234  32.728  52.899
25095W        W17019   4.253   0.295  50.134
25096W        W17020  34.699  29.244  51.526
25097W        W17021   6.261  12.243  51.068
25098W        W17022  40.209  30.718  53.335
25099W        W17023   7.783  18.739  51.952
25100W        W17024  10.241  26.750  52.875
25101W        W17025  44.216  46.680  53.792
25102W        W17026  25.215  22.716  51.988
25103W        W17027  36.215  30.221  52.445
25104W        W17028  35.225  40.203  51.970
25105W        W17029  20.764  30.741  52.434
25106W        W17030  25.234  28.206  51.520
25107W        W17031   6.255  40.189  49.688
25108W        W17032  38.235  20.217  51.036
25109W        W17033   0.782  25.718  49.684
25110W        W17034  24.212  17.264  53.805
25111W        W17035  39.688  36.210  51.069
25112W        W17036  40.187  36.209  51.983
25113W        W17037  12.729  38.231  53.778
25114W        W17038  40.731  34.205  50.142
25115W        W17039  46.697  31.708  51.514
25116W        W17040   2.259  17.262  49.681
25117W        W17041  14.726  40.694  52.862
25118W        W17042  21.258  43.691  49.665
25119W        W17043  36.197  15.737  52.886
25120W        W17044  42.723  29.749  53.808
25121W        W17045  22.239   0.251  50.603
25122W        W17046  47.709  39.701  53.796
25123W        W17047  28.243   0.261  53.338
25124W        W17048  17.761  42.197  53.791
25125W        W17049  24.242  35.693  50.142
25126W        W17050   7.747  29.234  51.527
25127W        W17051  13.263  20.260  50.591
25128W        W17052  29.748   8.272  53.332
25129W        W17053  21.762   1.288  50.584
25130W        W17054  18.743  12.256  53.773
25131W        W17055   8.745  19.255  51.074
25132W        W17056   2.270  38.196  53.337
25133W        W17057  20.241  41.202  52.405
25134W        W17058   7.250  14.229  51.073
25135W        W17059  42.713  46.676  53.792
25136W        W17060  30.741   8.276  53.776
25137W        W17061  31.699  14.736  52.407
25138W        W17062  12.743  28.204  49.683
25139W        W17063  35.239  38.698  50.136
25140W        W17064  12.743  10.751  52.892
25141W        W17065  10.780  38.722  51.060
25142W        W17066  44.718  11.254  52.406
25143W        W17067   7.250  43.687  51.494
25144W        W17068  27.707   7.246  51.507
25145W        W17069  11.264  43.697  51.512
25146W        W17070  17.734   8.247  53.346
25147W        W17071  40.185   9.259  51.056
25148W        W17072   2.764  27.249  49.692
25149W        W17073  15.738  27.208  51.971
25150W        W17074  42.703   0.293  53.352
25151W        W17075  34.208  14.262  51.524
25152W        W17076   9.763   6.261  51.491
25153W        W17077  30.743   8.248  52.411
25154W        W17078   0.287  43.706  53.339
25155W        W17079  39.218  36.214  51.989
25156W        W17080  46.207  32.210  52.861
25157W        W17081   5.269  19.727  52.404
25158W        W17082   4.784  19.719  51.066
25159W        W17083  38.229  33.219  51.505
25160W        W17084  18.244   2.249  53.789
25161W        W17085  21.745  36.725  51.968
25162W        W17086  43.726  39.722  53.333
25163W        W17087  24.239  20.231  50.595
25164W        W17088  14.754  48.170  50.165
25165W        W17089  38.724  12.250  52.428
25166W        W17090   1.255   6.753  51.493
25167W        W17091  47.686  13.757  50.149
25168W        W17092  33.724   2.294  51.992
25169W        W17093  12.764  43.227  52.408
25170W        W17094  26.247  25.250  53.352
25171W        W17095  14.746  45.681  49.683
25172W        W17096  41.203   1.293  51.981
25173W        W17097  20.235  26.713  51.043
25174W        W17098  43.216   3.266  50.622
25175W        W17099  43.679  19.729  53.797
25176W        W17100  34.739   4.779  53.343
25177W        W17101   3.288  48.215  51.950
25178W        W17102  31.725  33.243  51.039
25179W        W17103   7.770   2.288  50.582
25180W        W17104  37.209  40.194  53.788
25181W        W17105  32.197   0.284  53.780
25182W        W17106  31.737  37.717  50.133
25183W        W17107   6.778  44.720  50.608
25184W        W17108  41.193  46.692  49.701
25185W        W17109  27.714  12.754  51.073
25186W        W17110  22.723   1.291  49.701
25187W        W17111  16.250  18.256  53.347
25188W        W17112   9.244  42.185  49.670
25189W        W17113  28.748  32.714  50.144
25190W        W17114   4.788  45.700  49.684
25191W        W17115   5.774  40.683  51.070
25192W        W17116  23.249  45.692  49.695
25193W        W17117  18.264   0.762  52.883
25194W        W17118  37.715   7.786  50.599
25195W        W17119  27.242  43.726  52.902
25196W        W17120  39.189  45.220  51.059
25197W        W17121  18.269   3.276  51.063
25198W        W17122  25.719  14.237  49.710
25199W        W17123  17.244  12.755  52.884
25200W        W17124  15.770  20.735  52.898
25201W        W17125   7.283  36.198  50.135
25202W        W17126  19.733   4.285  51.979
25203W        W17127  30.221  17.261  50.165
25204W        W17128   1.274  21.249  51.490
25205W        W17129  42.208  21.239  51.035
25206W        W17130  27.736  45.710  50.146
25207W        W17131  22.238  40.203  49.681
25208W        W17132   4.767   6.766  51.992
25209W        W17133  26.724  45.704  51.054
25210W        W17134   4.755  22.257  51.521
25211W        W17135  21.235  15.736  51.058
25212W        W17136  23.238   2.293  52.868
25213W        W17137  30.247  43.711  51.956
25214W        W17138  32.206  41.729  49.675
25215W        W17139  39.717  15.768  52.880
25216W        W17140  11.257  31.701  50.125
25217W        W17141   4.277   8.241  50.160
25218W        W17142   4.764  22.229  52.878
25219W        W17143  24.219  39.211  53.807
25220W        W17144   7.765  27.720  50.581
25221W        W17145  21.737  20.266  52.861
25222W        W17146  37.726  15.759  51.077
25223W        W17147  30.243   1.797  50.614
25224W        W17148   2.284  28.226  51.529
25225W        W17149  33.216  44.205  53.357
25226W        W17150  46.678  32.736  49.678
25227W        W17151  13.767  11.271  51.063
25228W        W17152  37.701  26.709  53.782
25229W        W17153  11.778  15.751  53.785
25230W        W17154  21.253  13.270  50.149
25231W        W17155  15.265  48.216  51.505
25232W        W17156   5.780  37.703  50.611
25233W        W17157  43.223  24.749  50.610
25234W        W17158  10.758  35.229  51.071
25235W        W17159   9.765  25.243  51.978
25236W        W17160  44.698  13.274  51.536
25237W        W17161  23.746  17.743  51.948
25238W        W17162  16.251  12.278  50.163
25239W        W17163  13.271  22.762  51.953
25240W        W17164  42.683  22.754  53.325
25241W        W17165  27.221  45.178  53.330
25242W        W17166  12.235  22.239  53.787
25243W        W17167  25.754  32.709  51.957
25244W        W17168   0.265  30.219  51.516
25245W        W17169  43.711  30.222  51.965
25246W        W17170  46.187  26.747  52.429
25247W        W17171   2.786  31.227  52.893
25248W        W17172  10.257  21.219  52.443
25249W        W17173  34.697   3.264  50.601
25250W        W17174  11.736  44.208  49.689
25251W        W17175  31.220  32.229  53.355
25252W        W17176  45.191  38.236  50.124
25253W        W17177  37.730  48.186  50.160
25254W        W17178  33.232  44.199  52.434
25255W        W17179   7.257  42.722  53.348
25256W        W17180  45.704   2.294  52.886
25257W        W17181   0.261  18.265  50.604
25258W        W17182   3.769  30.744  50.579
25259W        W17183  25.718  22.733  53.353
25260W        W17184  19.229   3.264  52.445
25261W        W17185   1.293  46.198  50.125
25262W        W17186  14.733  35.195  51.527
25263W        W17187  11.757  28.213  51.036
25264W        W17188  42.194  30.738  52.410
25265W        W17189  37.202  37.227  51.057
25266W        W17190  32.236  45.702  50.616
25267W        W17191  35.706  20.228  53.340
25268W        W17192   4.760   0.277  50.123
25269W        W17193   9.757  14.737  52.420
25270W        W17194   4.779  18.729  52.443
25271W        W17195  46.711  38.698  52.888
25272W        W17196  24.734  46.722  53.790
25273W        W17197   8.749   2.783  51.065
25274W        W17198  47.674   9.735  53.346
25275W        W17199   6.248  18.729  49.699
25276W        W17200  47.191  39.701  49.685
25277W        W17201  24.755  10.281  50.604
25278W        W17202  42.181  11.743  51.969
25279W        W17203   6.246  30.216  51.524
25280W        W17204  32.718  33.735  51.045
25281W        W17205   6.256  47.210  51.526
25282W        W17206  26.217   4.277  53.323
25283W        W17207  29.716  42.713  50.600
25284W        W17208  47.203  14.729  49.677
25285W        W17209  14.773  46.703  50.158
25286W        W17210   8.748  23.742  53.353
25287W        W17211  21.255  45.676  52.901
25288W        W17212  32.241   9.282  51.491
25289W        W17213   1.291  45.688  49.692
25290W        W17214  18.257  29.243  52.879
25291W        W17215   2.786  41.220  53.355
25292W        W17216  44.206  34.722  51.037
25293W        W17217  30.705  22.249  53.789
25294W        W17218  19.245  10.264  51.063
25295W        W17219  30.243  21.756  50.142
25296W        W17220   3.769   1.776  50.594
25297W        W17221  40.707   4.276  51.497
25298W        W17222   1.794  35.209  50.587
25299W        W17223   2.777  26.256  50.134
25300W        W17224  36.198  13.249  52.879
25301W        W17225  33.198  30.724  52.892
25302W        W17226  30.243  36.714  49.671
25303W        W17227  41.185  12.734  51.074
25304W        W17228  15.731   2.264  51.952
25305W        W17229  35.215  46.689  51.964
25306W        W17230   8.248  31.202  51.531
25307W        W17231  35.204  22.242  50.153
25308W        W17232   7.737  36.196  53.795
25309W        W17233  28.239  27.249  53.809
25310W        W17234   1.273  20.742  49.705
25311W        W17235  28.239  48.206  52.893
25312W        W17236   3.747  29.719  52.864
25313W        W17237   7.269  19.722  51.057
25314W        W17238  38.719  22.725  53.774
25315W        W17239  27.217  22.235  53.323
25316W        W17240  21.250  25.746  49.669
25317W        W17241  13.745  32.244  52.443
25318W        W17242   7.779  21.744  52.448
25319W        W17243   7.252  13.729  52.878
25320W        W17244   2.790  35.215  51.518
25321W        W17245  19.256  35.209  51.528
25322W        W17246  35.207  30.704  52.405
25323W        W17247  24.253  46.179  51.066
25324W        W17248  27.749  26.217  53.787
25325W        W17249  41.204   1.278  51.521
25326W        W17250  21.247  20.751  51.078
25327W        W17251  15.248  48.220  52.433
25328W        W17252  20.266  23.759  52.429
25329W        W17253  27.208  29.232  53.342
25330W        W17254  10.259   3.289  53.791
25331W        W17255   7.268  35.722  51.044
25332W        W17256  26.256  31.727  53.800
25333W        W17257   6.751  10.734  52.894
25334W        W17258  30.202  16.730  50.132
25335W        W17259  22.222  21.219  52.406
25336W        W17260   6.774  15.761  53.359
25337W        W17261  26.714  24.240  53.342
25338W        W17262  31.733  45.676  51.072
25339W        W17263  15.751   3.286  51.955
25340W        W17264  42.201   1.757  52.409
25341W        W17265  44.679  34.201  52.883
25342W        W17266  20.756  46.703  51.058
25343W        W17267  13.729  26.741  53.814
25344W        W17268  18.254   5.746  49.694
25345W        W17269  27.215  36.737  51.041
25346W        W17270  34.697  22.255  51.971
25347W        W17271   5.762  22.243  52.439
25348W        W17272  45.724  12.267  50.582
25349W        W17273   0.787  15.244  51.059
25350W        W17274  39.232  11.768  52.896
25351W        W17275  47.215  36.217  51.505
25352W        W17276  46.174  13.229  50.595
25353W        W17277  29.236   5.759  52.893
25354W        W17278   7.759   7.250  52.424
25355W        W17279  18.720  13.764  52.414
25356W        W17280  35.698  20.256  52.440
25357W        W17281  33.234  14.769  50.165
25358W        W17282  45.705  44.217  49.709
25359W        W17283  28.221  30.216  52.447
25360W        W17284  17.260   5.750  51.957
25361W        W17285  31.226  15.270  52.878
25362W        W17286  32.228  11.249  50.137
25363W        W17287  15.225  43.200  49.681
25364W        W17288  32.238  17.768  51.497
25365W        W17289  41.723  41.721  51.512
25366W        W17290  45.193   2.253  51.071
25367W        W17291   9.275   2.793  50.139
25368W        W17292   4.778  17.745  51.044
25369W        W17293  39.709  22.747  53.776
25370W        W17294  19.260  39.686  53.815
25371W        W17295  33.225   6.775  51.074
25372W        W17296  47.682   6.252  51.063
25373W        W17297  36.211  25.720  51.503
25374W        W17298  33.727  30.232  53.807
25375W        W17299   7.782   6.743  53.782
25376W        W17300  37.707  45.681  53.361
25377W        W17301  19.739  34.195  51.046
25378W        W17302  23.755  28.739  52.889
25379W        W17303   8.240  47.703  51.992
25380W        W17304  32.729  41.716  51.961
25381W        W17305  29.702  29.233  53.811
25382W        W17306  26.233  19.763  52.900
25383W        W17307  27.220  21.735  51.530
25384W        W17308   6.746  45.707  53.360
25385W        W17309  28.215  18.251  50.125
25386W        W17310  26.241  40.222  53.338
25387W        W17311  11.265  27.244  51.989
25388W        W17312  29.717  37.736  53.327
25389W        W17313  21.739  40.195  52.887
25390W        W17314  24.745  26.222  51.971
25391W        W17315  35.234  48.176  50.613
25392W        W17316  10.741  27.224  52.439
25393W        W17317  29.704  18.230  53.777
25394W        W17318   6.244  11.265  51.517
25395W        W17319  17.223  36.196  53.325
25396W        W17320  35.702   4.757  50.121
25397W        W17321  34.213  26.234  52.431
25398W        W17322  20.760  30.717  52.901
25399W        W17323   9.240  35.233  52.875
25400W        W17324  38.197  46.216  50.153
25401W        W17325  32.739  24.227  52.442
25402W        W17326  37.702  17.729  51.523
25403W        W17327  19.237  43.692  51.059
25404W        W17328   8.284  44.201  52.420
25405W        W17329  15.252  35.219  52.443
25406W        W17330   4.269  20.754  51.512
25407W        W17331  27.705  20.259  52.403
25408W        W17332  15.261  32.200  53.797
25409W        W17333  24.244  24.211  52.435
25410W        W17334   8.281  27.254  51.530
25411W        W17335  11.245  28.230  51.055
25412W        W17336  13.256  27.718  51.065
25413W        W17337  26.716  34.194  51.982
25414W        W17338  19.727   0.753  50.164
25415W        W17339   1.766   0.765  50.621
25416W        W17340  42.686   8.765  49.701
25417W        W17341  38.189  35.736  50.588
25418W        W17342   5.759  37.228  50.154
25419W        W17343  35.706  46.717  50.610
25420W        W17344   6.775  22.762  49.686
25421W        W17345  18.737  24.732  51.512
25422W        W17346  16.272  37.735  50.129
25423W        W17347  44.701  20.738  52.412
25424W        W17348   8.774  28.212  51.983
25425W        W17349  13.275   2.276  53.331
25426W        W17350  11.749  32.711  50.124
25427W        W17351  35.720  18.723  53.775
25428W        W17352  41.188  12.758  50.588
25429W        W17353   5.778  31.716  52.439
25430W        W17354  33.202  47.687  49.710
25431W        W17355  41.726   3.275  51.071
25432W        W17356   3.291  21.262  51.063
25433W        W17357   2.762   5.276  52.880
25434W        W17358  13.764  15.738  52.437
25435W        W17359   6.252  10.764  49.677
25436W        W17360  43.189   9.747  51.501
25437W        W17361  39.708  36.711  51.952
25438W        W17362  41.692  11.267  53.816
25439W        W17363   8.761  14.231  50.163
25440W        W17364  23.729   4.770  52.445
25441W        W17365   5.784  12.764  49.708
25442W        W17366  25.216  43.212  52.404
25443W        W17367   5.246  10.779  53.360
25444W        W17368  32.745  18.263  52.431
25445W        W17369   1.274  45.198  49.690
25446W        W17370   1.793  39.702  53.784
25447W        W17371  15.240  10.740  50.590
25448W        W17372  25.211  36.217  53.331
25449W        W17373  43.212  42.706  50.614
25450W        W17374  46.206  24.744  51.512
25451W        W17375  38.702  42.708  49.671
25452W        W17376  31.726  43.680  50.605
25453W        W17377  37.699  13.262  49.671
25454W        W17378  47.190  41.711  53.805
25455W        W17379   4.790  40.223  52.434
25456W        W17380  33.231  43.693  51.493
25457W        W17381  33.717  12.749  50.605
25458W        W17382  27.207  24.736  51.981
25459W        W17383  14.771  15.750  53.319
25460W        W17384  39.226  37.227  51.508
25461W        W17385  31.216  41.682  51.041
25462W        W17386  35.731  21.262  53.322
25463W        W17387  20.718  38.219  49.709
25464W        W17388  12.748  35.701  49.677
25465W        W17389   3.257  27.729  52.432
25466W        W17390   9.745  17.268  49.666
25467W        W17391  45.717   3.256  50.132
25468W        W17392  40.697  18.738  50.580
25469W        W17393  47.175   3.272  50.153
25470W        W17394   2.787  35.720  51.981
25471W        W17395  25.730  32.744  50.584
25472W        W17396  34.729  47.210  51.070
25473W        W17397   9.261  33.710  51.491
25474W        W17398   5.259   8.748  50.154
25475W        W17399  13.239  41.703  51.048
25476W        W17400  13.770  40.211  52.423
25477W        W17401  42.186  46.220  53.773
25478W        W17402  15.230  24.740  49.667
25479W        W17403  44.218  21.244  53.317
25480W        W17404  11.736  44.206  50.148
25481W        W17405  42.692  26.252  52.418
25482W        W17406   3.288  28.246  50.146
25483W        W17407   5.785  21.753  51.952
25484W        W17408  21.260  40.684  51.505
25485W        W17409  47.709  28.710  53.353
25486W        W17410  45.703  40.227  52.404
25487W        W17411  12.267  23.756  49.669
25488W        W17412   1.280  20.721  51.959
25489W        W17413   0.770  23.229  53.343
25490W        W17414  28.252  31.215  49.669
25491W        W17415  30.225  29.225  50.579
25492W        W17416  43.721  48.176  52.443
25493W        W17417  47.186  17.248  53.792
25494W        W17418  14.239   9.275  53.359
25495W        W17419  18.728   2.760  50.136
25496W        W17420  28.723  11.266  49.670
25497W        W17421   1.747  17.229  51.980
25498W        W17422   5.257  31.715  52.899
25499W        W17423   7.282  18.257  50.121
25500W        W17424  16.234  34.239  50.604
25501W        W17425  15.237  23.727  51.052
25502W        W17426  13.255  42.713  53.346
25503W        W17427  12.743  20.223  50.615
25504W        W17428  26.728  11.740  51.072
25505W        W17429  37.224  40.729  51.500
25506W        W17430   2.779  48.173  51.970
25507W        W17431  17.227  46.684  51.042
25508W        W17432  33.719  30.733  52.888
25509W        W17433  20.751   8.256  51.068
25510W        W17434  32.710   9.255  52.435
25511W        W17435  20.235  38.207  53.778
25512W        W17436   4.243  19.759  51.500
25513W        W17437  39.189  22.762  53.318
25514W        W17438  44.193  36.710  50.587
25515W        W17439  36.720  40.202  49.689
25516W        W17440  14.275   8.286  52.890
25517W        W17441  35.238  23.730  50.613
25518W        W17442   1.289   9.752  52.438
25519W        W17443  20.749  21.220  52.411
25520W        W17444  13.752  22.255  50.155
25521W        W17445  27.716   3.779  51.522
25522W        W17446   7.779   7.783  51.063
25523W        W17447  46.709  15.756  49.702
25524W        W17448  45.707  21.255  49.670
25525W        W17449  29.733  15.237  50.159
25526W        W17450  32.721  28.253  49.684
25527W        W17451   2.294  17.251  53.804
25528W        W17452  29.230  29.249  53.361
25529W        W17453  37.735  47.675  52.413
25530W        W17454  42.706  22.218  53.806
25531W        W17455   4.280  17.732  53.815
25532W        W17456  19.766  17.263  50.581
25533W        W17457  29.713  32.735  50.133
25534W        W17458   1.765  23.752  51.074
25535W        W17459  26.752  29.715  51.055
25536W        W17460  24.710  24.729  50.164
25537W        W17461   8.238  24.725  53.799
25538W        W17462  38.697  29.731  53.358
25539W        W17463  36.239  26.252  52.420
25540W        W17464  44.692   3.273  49.670
25541W        W17465  27.252  19.222  52.898
25542W        W17466  40.684   8.755  49.690
25543W        W17467  14.256  36.232  50.586
25544W        W17468  30.722   6.775  52.414
25545W        W17469  38.695  38.689  52.425
25546W        W17470  45.204  27.747  52.419
25547W        W17471   6.742  13.747  53.789
25548W        W17472  45.194  40.690  50.161
25549W        W17473  41.194   3.263  49.678
25550W        W17474  24.733  40.716  50.123
25551W        W17475  10.256   4.745  53.355
25552W        W17476  44.222   5.260  52.436
25553W        W17477  25.749  35.204  52.427
25554W        W17478  42.202  47.698  49.692
25555W        W17479  23.215   7.241  49.692
25556W        W17480  39.701  14.772  53.784
25557W        W17481  26.210   3.249  51.970
25558W        W17482  31.221  46.213  51.052
25559W        W17483   2.276  27.745  50.141
25560W        W17484  43.181  14.257  53.805
25561W        W17485   8.276  15.757  52.414
25562W        W17486  20.265  31.709  51.057
25563W        W17487  37.706  34.698  51.965
25564W        W17488  18.764  13.231  53.329
25565W        W17489   0.280  26.711  50.148
25566W        W17490  47.176   0.787  53.815
25567W        W17491  24.710   6.241  51.948
25568W        W17492   3.749  45.693  51.492
25569W        W17493  28.743  20.233  51.041
25570W        W17494   5.741   4.743  53.794
25571W        W17495  47.684   0.291  52.409
25572W        W17496  22.719  19.763  53.790
25573W        W17497  40.719   8.741  50.157
25574W        W17498  16.255  41.717  52.421
25575W        W17499  23.247  37.222  49.666
25576W        W17500   9.760  10.250  50.592
25577W        W17501  14.750  22.241  52.447
25578W        W17502  24.720  31.216  52.410
25579W        W17503   3.773  34.708  53.785
25580W        W17504   4.756   4.290  52.883
25581W        W17505   5.247  33.195  52.865
25582W        W17506  38.720   0.794  50.612
25583W        W17507  25.745  34.735  53.360
25584W        W17508  47.688  38.231  51.524
25585W        W17509   8.237  42.702  53.338
25586W        W17510  43.227  19.756  52.889
25587W        W17511  46.188  40.212  49.674
25588W        W17512  33.710  12.246  50.155
25589W        W17513  43.718  19.245  51.069
25590W        W17514  24.217   9.264  52.879
25591W        W17515  33.711  44.679  50.597
25592W        W17516  37.218  37.219  50.131
25593W        W17517  33.721   9.237  49.681
25594W        W17518  45.722  23.724  53.785
25595W        W17519  21.234  20.728  50.124
25596W        W17520  16.751  27.742  53.334
25597W        W17521   0.272  13.773  52.879
25598W        W17522  32.697   0.776  51.074
25599W        W17523  47.686  41.194  51.045
25600W        W17524  47.679  32.735  51.037
25601W        W17525  18.736  13.755  52.882
25602W        W17526  35.221   6.274  52.421
25603W        W17527  10.760  27.750  53.355
25604W        W17528  14.739   7.762  52.405
25605W        W17529  11.255  13.767  49.684
25606W        W17530  16.271  23.223  49.670
25607W        W17531  47.716  24.739  52.407
25608W        W17532  28.211  25.234  53.335
25609W        W17533  16.725  14.229  51.037
25610W        W17534  34.741  16.740  49.669
25611W        W17535  35.206  13.265  53.344
25612W        W17536  11.267  31.707  53.782
25613W        W17537   3.763  47.196  50.621
25614W        W17538  29.212  22.260  53.780
25615W        W17539  19.740  26.232  52.448
25616W        W17540  22.214  23.760  52.422
25617W        W17541  17.729  43.692  51.963
25618W        W17542  46.721  22.740  51.983
25619W        W17543  42.229  41.204  51.966
25620W        W17544  23.212  29.244  50.581
25621W        W17545   0.780  12.747  52.873
25622W        W17546  19.723   8.744  49.671
25623W        W17547   9.281   5.242  50.126
25624W        W17548  41.213  21.243  50.139
25625W        W17549  33.199  16.252  50.610
25626W        W17550   7.259  18.262  50.616
25627W        W17551  21.228  31.739  53.337
25628W        W17552   2.273  15.728  49.695
25629W        W17553   8.285  30.238  50.600
25630W        W17554   5.273  19.749  51.064
25631W        W17555  28.737  39.187  52.413
25632W        W17556  23.222  30.237  50.121
25633W        W17557  29.720  25.716  52.432
25634W        W17558  32.211  29.216  51.035
25635W        W17559  23.219  43.705  50.144
25636W        W17560  37.708   8.752  50.131
25637W        W17561  34.194   1.794  53.359
25638W        W17562   9.261  46.205  51.503
25639W        W17563  19.763  37.204  49.683
25640W        W17564  43.228  30.202  51.064
25641W        W17565  23.735  14.245  50.139
25642W        W17566  47.703   8.749  53.345
25643W        W17567  41.183   0.282  51.953
25644W        W17568  26.723  34.242  50.132
25645W        W17569  28.250   0.765  50.158
25646W        W17570   3.292  46.702  53.318
25647W        W17571   3.773  45.187  50.129
25648W        W17572  42.229  22.752  51.491
25649W        W17573   0.790  19.267  52.417
25650W        W17574  40.213   8.238  53.345
25651W        W17575  26.720  12.770  51.501
25652W        W17576  40.709  28.251  50.612
25653W        W17577  42.194   6.260  50.156
25654W        W17578  26.733  27.218  50.158
25655W        W17579  10.761   8.241  49.674
25656W        W17580  32.229  44.187  49.700
25657W        W17581  21.245  25.242  51.535
25658W        W17582  10.743   6.266  50.610
25659W        W17583   6.745   6.755  50.585
25660W        W17584  11.277   5.276  51.523
25661W        W17585  15.750   3.754  53.354
25662W        W17586  37.692  21.238  52.446
25663W        W17587   3.757  18.768  53.342
25664W        W17588  46.706  24.244  50.131
25665W        W17589  14.242  11.738  52.897
25666W        W17590  18.234  36.694  50.136
25667W        W17591   7.770   5.250  49.707
25668W        W17592   2.786  10.272  49.672
25669W        W17593  14.761  31.212  53.787
25670W        W17594  40.716  37.193  52.889
25671W        W17595   4.266  15.742  51.037
25672W        W17596  32.198  32.730  50.603
25673W        W17597   9.764  10.779  51.971
25674W        W17598  21.251  38.726  50.146
25675W        W17599  12.763  36.701  51.985
25676W        W17600  14.265  17.722  51.964
25677W        W17601  28.717  40.221  53.786
25678W        W17602   9.245  21.234  52.444
25679W        W17603  44.680   0.259  51.036
25680W        W17604  19.267   7.755  50.159
25681W        W17605   4.280  48.214  53.809
25682W        W17606  28.251  45.209  51.504
25683W        W17607   3.255  21.264  51.524
25684W        W17608  29.232  29.738  50.597
25685W        W17609  11.775  23.258  51.963
25686W        W17610  36.700  21.752  52.417
25687W        W17611  40.197  25.229  50.601
25688W        W17612  47.685  21.744  51.961
25689W        W17613  38.192  44.716  49.677
25690W        W17614  45.698  36.734  52.868
25691W        W17615  21.731  37.706  51.529
25692W        W17616  23.727  41.713  50.580
25693W        W17617  34.698   6.269  51.058
25694W        W17618  46.215   4.770  53.335
25695W        W17619  34.208   5.262  50.122
25696W        W17620  38.735   6.762  53.779
25697W        W17621  33.224  38.206  51.983
25698W        W17622   4.768  32.235  50.613
25699W        W17623  21.217  19.724  53.794
25700W        W17624  30.744  46.688  50.136
25701W        W17625  40.188   0.280  50.608
25702W        W17626  28.221  13.733  50.126
25703W        W17627  47.194  10.236  50.156
25704W        W17628  13.249  34.212  51.951
25705W        W17629  30.734  31.237  50.606
25706W        W17630  37.189  17.271  49.679
25707W        W17631  30.217  36.191  52.408
25708W        W17632   9.254  41.208  50.577
25709W        W17633   1.275  38.708  52.437
25710W        W17634  16.246  19.242  52.438
25711W        W17635   1.780   8.243  49.692
25712W        W17636  21.251  44.682  53.781
25713W        W17637  18.238  23.235  49.686
25714W        W17638   1.754  42.691  53.354
25715W        W17639   8.281  18.722  52.418
25716W        W17640  13.760  38.710  51.047
25717W        W17641  12.250   4.257  49.672
25718W        W17642  13.761   8.237  50.137
25719W        W17643  41.196   9.265  52.893
25720W        W17644  44.717  15.747  51.531
25721W        W17645   8.767  24.212  52.877
25722W        W17646   9.237  36.705  52.426
25723W        W17647  19.257  37.698  51.058
25724W        W17648  36.702   0.789  53.352
25725W        W17649  32.246  11.758  51.501
25726W        W17650  16.239  40.214  51.497
25727W        W17651   5.273  27.213  51.495
25728W        W17652   6.747  15.755  50.135
25729W        W17653  22.231  45.202  51.506
25730W        W17654   9.240  39.206  51.068
25731W        W17655  26.236  27.735  50.613
25732W        W17656  42.700  26.248  51.981
25733W        W17657  39.702   7.753  53.319
25734W        W17658   6.749  39.201  52.424
25735W        W17659  13.752   8.785  51.966
25736W        W17660  17.247  37.232  53.359
25737W        W17661  18.257  14.274  52.434
25738W        W17662  48.197  45.177  50.125
25739W        W17663  27.739  15.273  52.885
25740W        W17664  28.205  36.193  49.684
25741W        W17665  36.732  30.737  49.702
25742W        W17666  46.222  22.757  52.423
25743W        W17667   0.258  31.242  49.671
25744W        W17668  38.727  18.239  51.972
25745W        W17669   6.255  21.256  53.346
25746W        W17670  24.255  37.204  50.123
25747W        W17671  21.254  48.180  51.494
25748W        W17672  20.263  35.200  51.502
25749W        W17673  12.737   0.774  52.869
25750W        W17674  23.721  19.724  49.703
25751W        W17675  33.722  12.749  51.510
25752W        W17676   7.240  34.216  52.443
25753W        W17677  43.204   9.281  53.325
25754W        W17678  16.756  33.235  53.809
25755W        W17679  19.227  39.190  52.885
25756W        W17680  31.219  39.234  52.868
25757W        W17681  46.715   8.772  50.152
25758W        W17682  31.719  35.230  53.797
25759W        W17683  37.223  43.710  51.499
25760W        W17684   2.256  40.705  51.491
25761W        W17685   8.748  31.739  53.357
25762W        W17686   8.263   1.787  49.694
25763W        W17687  46.181  10.761  50.587
25764W        W17688  40.224   9.278  53.786
25765W        W17689  26.216  33.244  50.618
25766W        W17690  14.755   4.280  50.123
25767W        W17691  31.223  20.224  52.889
25768W        W17692  10.245  27.210  49.698
25769W        W17693   6.782  30.217  53.339
25770W        W17694  13.268  20.757  52.903
25771W        W17695  43.686  14.266  50.147
25772W        W17696  20.719   1.266  51.509
25773W        W17697  15.229  17.230  50.122
25774W        W17698  30.227  32.228  50.618
25775W        W17699   5.275  14.268  52.883
25776W        W17700   4.280  15.760  53.339
25777W        W17701  15.759  38.701  51.040
25778W        W17702  10.266  12.246  53.324
25779W        W17703  45.203  18.736  52.887
25780W        W17704  22.750  34.717  50.612
25781W        W17705  24.219  16.765  51.964
25782W        W17706  18.757  22.233  50.598
25783W        W17707  30.748  45.679  52.904
25784W        W17708  34.695  27.745  51.067
25785W        W17709  26.736  27.244  49.671
25786W        W17710  17.721  14.276  51.964
25787W        W17711  24.247  13.264  53.788
25788W        W17712  39.698   5.274  52.891
25789W        W17713  16.747   9.740  51.534
25790W        W17714  23.257  18.739  51.495
25791W        W17715  16.737  36.200  51.038
25792W        W17716  23.242   2.761  53.319
25793W        W17717  48.212   5.786  53.813
25794W        W17718  29.729   0.250  51.982
25795W        W17719  40.187  19.260  52.897
25796W        W17720  27.217  24.747  51.507
25797W        W17721  27.238   3.771  51.974
25798W        W17722   5.265   7.745  50.164
25799W        W17723   9.783  25.726  50.600
25800W        W17724  17.223  28.220  51.977
25801W        W17725  19.219  37.735  52.883
25802W        W17726  39.210  19.228  50.128
25803W        W17727  29.219  17.224  51.533
25804W        W17728  31.736  28.216  49.681
25805W        W17729  31.245  11.756  51.077
25806W        W17730  30.203  12.243  52.903
25807W        W17731  19.759  44.700  50.141
25808W        W17732  38.728  32.715  51.073
25809W        W17733  39.706  35.210  51.063
25810W        W17734  32.729  27.244  51.038
25811W        W17735  20.232  33.227  51.047
25812W        W17736  47.715   4.249  51.949
25813W        W17737  21.749  31.745  50.589
25814W        W17738  31.745  23.730  51.949
25815W        W17739   8.275  14.241  50.608
25816W        W17740  22.743  15.254  51.515
25817W        W17741  34.240  45.711  53.348
25818W        W17742  44.718   9.239  50.153
25819W        W17743  35.731  10.739  51.051
25820W        W17744   8.760  37.736  50.151
25821W        W17745  16.762   3.767  50.132
25822W        W17746  21.235  39.691  51.064
25823W        W17747   6.282  11.760  51.967
25824W        W17748  15.228   5.779  53.815
25825W        W17749  44.702   8.250  51.947
25826W        W17750  38.200  38.197  50.124
25827W        W17751  12.270   7.772  51.516
25828W        W17752  45.718  22.254  53.323
25829W        W17753  22.760  40.216  50.582
25830W        W17754  35.738  35.196  50.128
25831W        W17755  46.223  13.258  51.041
25832W        W17756  20.234  17.748  51.499
25833W        W17757   1.773  42.688  50.600
25834W        W17758   4.286  18.750  53.808
25835W        W17759  32.723  24.749  51.512
25836W        W17760  12.242  27.709  50.121
25837W        W17761   4.281  35.737  49.701
25838W        W17762  34.225  42.688  51.519
25839W        W17763  35.727  37.196  51.990
25840W        W17764  26.234  17.236  52.878
25841W        W17765  43.680  24.713  52.876
25842W        W17766  47.177  18.759  49.677
25843W        W17767  31.715  41.228  51.035
25844W        W17768  36.720  30.706  53.780
25845W        W17769  34.719   0.772  51.061
25846W        W17770   4.289  26.256  52.444
25847W        W17771   2.791  34.217  50.158
25848W        W17772  43.725   5.266  52.895
25849W        W17773  30.244  43.203  50.603
25850W        W17774  13.244  13.252  52.405
25851W        W17775  41.185  10.283  53.776
25852W        W17776   5.250   5.268  53.319
25853W        W17777  29.703  23.726  49.677
25854W        W17778  16.767   7.753  52.406
25855W        W17779  34.739  28.219  51.048
25856W        W17780  31.730  15.767  51.057
25857W        W17781  10.280  44.724  51.042
25858W        W17782  27.239  47.196  50.139
25859W        W17783  38.198  14.750  52.873
25860W        W17784  47.702  39.729  51.530
25861W        W17785   4.776  15.751  49.690
25862W        W17786   9.238  39.203  52.413
25863W        W17787  11.752  39.199  50.580
25864W        W17788  47.692  28.252  52.875
25865W        W17789  40.719  16.268  51.072
25866W        W17790  18.265   6.782  50.154
25867W        W17791  26.714  38.697  53.797
25868W        W17792  31.698   9.783  50.134
25869W        W17793  39.695  10.283  52.444
25870W        W17794   9.255  36.215  49.671
25871W        W17795  29.719  28.235  52.418
25872W        W17796  38.192  21.216  50.620
25873W        W17797  13.271  44.211  50.619
25874W        W17798  30.718  29.717  51.522
25875W        W17799   0.284  17.730  50.163
25876W        W17800   6.740  19.235  49.674
25877W        W17801  12.273  32.214  49.670
25878W        W17802   5.244  14.761  52.442
25879W        W17803  15.254  38.700  51.061
25880W        W17804  15.730   1.791  50.595
25881W        W17805  14.253  47.208  52.872
25882W        W17806  12.250   1.752  51.530
25883W        W17807  37.731  17.757  52.427
25884W        W17808   5.260  28.223  53.788
25885W        W17809  15.730  41.221  50.616
25886W        W17810  44.686  40.200  52.900
25887W        W17811  25.731  42.199  51.042
25888W        W17812  13.251   6.276  51.497
25889W        W17813  29.250  11.274  52.886
25890W        W17814  36.715   4.751  51.955
25891W        W17815  42.213  37.701  51.045
25892W        W17816  43.197  28.727  52.881
25893W        W17817  26.737  12.758  49.703
25894W        W17818  36.191  45.719  51.491
25895W        W17819  43.184  16.238  51.516
25896W        W17820  19.229  17.732  53.350
25897W        W17821  15.732  17.237  50.613
25898W        W17822  44.699  35.205  51.947
25899W        W17823  21.265  20.743  49.695
25900W        W17824  34.206   6.749  51.956
25901W        W17825  26.735  29.235  53.796
25902W        W17826  43.724   0.755  50.138
25903W        W17827  14.736  35.708  49.675
25904W        W17828  42.190  21.225  50.129
25905W        W17829   4.261  35.720  50.599
25906W        W17830  42.228  18.221  49.688
25907W        W17831  20.220  11.754  52.893
25908W        W17832  48.173  35.733  51.065
25909W        W17833  21.726  46.712  53.793
25910W        W17834   5.244  33.712  53.360
25911W        W17835   3.779   0.285  52.429
25912W        W17836  18.744  33.197  49.705
25913W        W17837   7.778  41.692  52.865
25914W        W17838  41.196   7.252  52.425
25915W        W17839   7.761  18.269  52.897
25916W        W17840  14.255  12.262  51.528
25917W        W17841  21.728  16.769  52.415
25918W        W17842  13.763  32.227  51.522
25919W        W17843   0.289  16.245  53.332
25920W        W17844   7.755  30.206  53.799
25921W        W17845  19.724  36.715  51.532
25922W        W17846  25.755  22.750  50.600
25923W        W17847   4.746  32.737  49.679
25924W        W17848  39.216  39.220  52.889
25925W        W17849   4.777   1.294  52.874
25926W        W17850  40.207  29.222  49.677
25927W        W17851   0.785  28.724  50.163
25928W        W17852   9.235  44.217  51.056
25929W        W17853  12.775  47.715  52.432
25930W        W17854   6.769  45.709  50.585
25931W        W17855   6.752  41.703  50.613
25932W        W17856  45.207  36.232  53.808
25933W        W17857  22.230  14.270  53.336
25934W        W17858   8.768  46.192  49.686
25935W        W17859  10.264  19.719  52.899
25936W        W17860  34.203  28.213  49.666
25937W        W17861  23.252  46.215  52.863
25938W        W17862  46.673  22.745  52.425
25939W        W17863  33.703  28.729  53.349
25940W        W17864  16.234  28.714  53.806
25941W        W17865  34.703   5.744  49.707
25942W        W17866   4.777  21.224  51.962
25943W        W17867  22.755   8.743  52.433
25944W        W17868   7.243  36.725  52.864
25945W        W17869  39.694  38.725  50.123
25946W        W17870   2.269   4.770  51.956
25947W        W17871  22.252  15.231  50.122
25948W        W17872  26.216  24.256  52.413
25949W        W17873   9.759   9.269  53.809
25950W        W17874  40.187  37.733  51.034
25951W        W17875  42.693  27.231  51.492
25952W        W17876   4.765  43.192  50.135
25953W        W17877   8.259  31.711  50.153
25954W        W17878  40.184  45.218  51.513
25955W        W17879  37.732  34.713  49.692
25956W        W17880  43.683  16.765  53.321
25957W        W17881   8.761  44.185  50.616
25958W        W17882   2.268  25.225  51.045
25959W        W17883  26.744  10.260  52.409
25960W        W17884  15.227  32.720  52.409
25961W        W17885  12.243  24.729  53.790
25962W        W17886  21.215  36.695  51.036
25963W        W17887  23.220  11.244  51.510
25964W        W17888  42.209  17.244  50.599
25965W        W17889  33.707  17.238  50.599
25966W        W17890   2.752   5.788  53.788
25967W        W17891  13.260   2.782  52.895
25968W        W17892  33.741  45.722  50.146
25969W        W17893  18.741  36.230  53.772
25970W        W17894  35.236  35.203  51.976
25971W        W17895  24.255  19.264  51.048
25972W        W17896   9.738   5.788  49.689
25973W        W17897  40.216  39.226  52.863
25974W        W17898  43.186  33.715  51.076
25975W        W17899   6.286  23.757  52.903
25976W        W17900  28.734   6.266  52.884
25977W        W17901  30.226  15.756  51.960
25978W        W17902  37.226   7.287  51.961
25979W        W17903  34.236  47.711  51.954
25980W        W17904  12.773   5.284  52.873
25981W        W17905  47.218  43.687  51.060
25982W        W17906  20.247  39.203  49.685
25983W        W17907  21.261  42.192  52.416
25984W        W17908  19.719  13.767  53.354
25985W        W17909  15.259   1.254  53.797
25986W        W17910  20.235  20.755  51.970
25987W        W17911  13.765   4.257  49.673
25988W        W17912   1.296  27.732  53.327
25989W        W17913  27.735  48.173  51.950
25990W        W17914  27.220  13.276  51.974
25991W        W17915   5.279  14.760  49.672
25992W        W17916  16.256  11.763  50.164
25993W        W17917  28.245  24.239  50.166
25994W        W17918  22.236   5.773  51.045
25995W        W17919  37.737   1.753  51.071
25996W        W17920  19.221   8.748  53.812
25997W        W17921   1.297  38.220  52.867
25998W        W17922   2.763  40.200  50.580
25999W        W17923   3.744   0.299  50.142
26000W        W17924  27.714  17.764  52.410
26001W        W17925  14.244   6.783  51.502
26002W        W17926   1.252  36.735  51.497
26003W        W17927  27.219  26.210  52.418
26004W        W17928  33.697  24.715  51.972
26005W        W17929   8.753   5.249  51.044
26006W        W17930  33.226  38.228  51.069
26007W        W17931  28.733   5.258  51.509
26008W        W17932  30.708  13.261  51.037
26009W        W17933   8.247   2.279  51.079
26010W        W17934  20.752  17.264  52.903
26011W        W17935  37.207   9.240  52.871
26012W        W17936  48.209  11.736  53.335
26013W        W17937  36.214  16.751  53.334
26014W        W17938  32.229  12.254  51.072
26015W        W17939  19.232   2.271  51.046
26016W        W17940  34.227  31.698  52.877
26017W        W17941  23.753  13.769  52.419
26018W        W17942  30.738  31.215  49.709
26019W        W17943   3.249  17.762  50.594
26020W        W17944  41.220  43.705  50.142
26021W        W17945  35.705  20.751  49.709
26022W        W17946   7.756  20.753  52.879
26023W        W17947  21.733  30.704  51.067
26024W        W17948  24.245  25.736  51.063
26025W        W17949  30.734  31.738  51.534
26026W        W17950  46.192  14.266  52.446
26027W        W17951   3.782   1.764  51.041
26028W        W17952  11.742  19.719  53.354
26029W        W17953  11.236   2.793  52.870
26030W        W17954  41.705  10.762  53.322
26031W        W17955  43.194   4.783  50.613
26032W        W17956  41.717  14.732  51.072
26033W        W17957  37.723  46.705  49.677
26034W        W17958   6.249  29.240  51.957
26035W        W17959  36.213   6.751  50.164
26036W        W17960   6.265   9.759  49.687
26037W        W17961  47.213   2.756  51.500
26038W        W17962  44.717  32.734  53.340
26039W        W17963  37.702  40.712  53.813
26040W        W17964  38.223  27.248  50.139
26041W        W17965   7.243  22.713  52.885
26042W        W17966  15.739  21.756  50.166
26043W        W17967  27.714  29.738  53.806
26044W        W17968  43.726   9.758  51.947
26045W        W17969  41.688  35.734  52.893
26046W        W17970  22.758  43.690  53.322
26047W        W17971  34.220   3.247  49.696
26048W        W17972  13.264   2.795  50.613
26049W        W17973  17.732  10.278  52.419
26050W        W17974  14.247  29.214  49.665
26051W        W17975  35.697  34.207  53.776
26052W        W17976   1.266   5.759  53.353
26053W        W17977  41.225  37.731  53.359
26054W        W17978  12.265  44.200  51.973
26055W        W17979  11.240  13.272  51.034
26056W        W17980  12.767  44.715  49.700
26057W        W17981  24.238  14.726  51.492
26058W        W17982  26.708  17.730  53.361
26059W        W17983   9.272  36.239  50.164
26060W        W17984  47.699   3.772  53.786
26061W        W17985  10.276  19.739  53.359
26062W        W17986  46.211   8.745  53.816
26063W        W17987  35.739   6.253  53.789
26064W        W17988   4.249  45.687  49.672
26065W        W17989  46.685  24.749  50.611
26066W        W17990  13.741  13.245  51.976
26067W        W17991  45.716  27.746  52.445
26068W        W17992   8.757   9.752  52.867
26069W        W17993   9.240  18.732  49.682
26070W        W17994   2.286  38.717  50.148
26071W        W17995  46.178  25.712  50.144
26072W        W17996  11.776  26.208  52.447
26073W        W17997  35.222   3.784  52.901
26074W        W17998  39.188  39.689  51.504
26075W        W17999  45.699  32.198  50.125
26076W        W18000  12.779   3.281  51.954
26077W        W18001  31.719  37.217  50.582
26078W        W18002   7.241  45.197  50.603
26079W        W18003   9.251  15.244  50.124
26080W        W18004  38.196  45.714  49.699
26081W        W18005  34.701  42.685  49.682
26082W        W18006   2.259  21.750  50.591
26083W        W18007  14.259  25.716  50.599
26084W        W18008  20.764  38.706  49.676
26085W        W18009  39.186  21.750  53.318
26086W        W18010  35.715  19.729  51.951
26087W        W18011  18.739  36.733  52.433
26088W        W18012  11.255  26.222  51.053
26089W        W18013  15.763  25.738  51.498
26090W        W18014   5.790  42.680  51.533
26091W        W18015  47.200  38.707  51.521
26092W        W18016  48.199  16.252  52.900
26093W        W18017  33.243  35.726  52.416
26094W        W18018  41.195  45.691  50.602
26095W        W18019  22.253  24.728  49.676
26096W        W18020  25.712   1.272  50.621
26097W        W18021  26.233   9.765  50.604
26098W        W18022  35.695  29.703  51.531
26099W        W18023  11.272  18.738  49.700
26100W        W18024   7.776  39.191  49.706
26101W        W18025  10.267  22.716  49.699
26102W        W18026   8.754  34.196  52.897
26103W        W18027   7.763  18.258  53.356
26104W        W18028  35.730  40.228  50.586
26105W        W18029  21.224  21.754  53.813
26106W        W18030  17.748  19.233  51.950
26107W        W18031  18.742  15.755  52.876
26108W        W18032   7.252  31.739  51.523
26109W        W18033  45.211  40.207  53.329
26110W        W18034  13.756  29.202  52.410
26111W        W18035  47.715  46.681  50.621
26112W        W18036  44.710  24.233  53.336
26113W        W18037  39.188  32.221  51.500
26114W        W18038  14.762  39.190  53.338
26115W        W18039  42.203  40.684  51.984
26116W        W18040  47.680  33.739  51.955
26117W        W18041   4.745  36.193  53.338
26118W        W18042   1.780  46.218  52.444
26119W        W18043  11.756  36.204  50.598
26120W        W18044  21.238  24.721  53.320
26121W        W18045  23.213  45.195  51.039
26122W        W18046  35.240  22.751  50.162
26123W        W18047  34.212  24.213  51.987
26124W        W18048  45.690  13.275  49.703
26125W        W18049  27.738  25.234  52.437
26126W        W18050  12.273   4.281  51.983
26127W        W18051  48.203   4.259  52.876
26128W        W18052  24.742  30.720  49.686
26129W        W18053  34.693  15.242  52.859
26130W        W18054   6.768  14.732  53.348
26131W        W18055  22.718  45.185  52.403
26132W        W18056  15.256  31.706  50.151
26133W        W18057   2.291  29.249  49.697
26134W        W18058  29.714   9.762  51.515
26135W        W18059  45.212  20.253  51.979
26136W        W18060   5.288  44.200  49.665
26137W        W18061  44.209  17.725  51.517
26138W        W18062   6.768  32.231  53.329
26139W        W18063  46.207  47.222  50.585
26140W        W18064  12.733  11.754  50.139
26141W        W18065   1.248  39.208  53.782
26142W        W18066   9.755  31.234  50.600
26143W        W18067  10.741   6.283  52.444
26144W        W18068  27.739  19.760  50.127
26145W        W18069  10.751  11.249  52.434
26146W        W18070  35.692  19.767  52.868
26147W        W18071   8.254  41.713  51.510
26148W        W18072  31.214  35.229  51.986
26149W        W18073   0.771  21.235  52.867
26150W        W18074  16.226   1.777  52.892
26151W        W18075  16.230  42.182  52.861
26152W        W18076  48.181   9.271  50.122
26153W        W18077  40.187  22.233  52.872
26154W        W18078  16.745  39.226  52.901
26155W        W18079   7.261  13.235  53.816
26156W        W18080   8.763  19.754  49.703
26157W        W18081  15.757  46.717  52.406
26158W        W18082  22.762  24.226  49.664
26159W        W18083  29.203  13.760  52.874
26160W        W18084   9.251  27.742  50.607
26161W        W18085  24.743  47.718  49.693
26162W        W18086  24.220  31.227  52.892
26163W        W18087  20.741  27.208  51.516
26164W        W18088   5.282  46.682  50.586
26165W        W18089  29.707  22.249  50.135
26166W        W18090  25.243  20.730  53.772
26167W        W18091  22.740  25.241  53.803
26168W        W18092  41.697   9.240  51.491
26169W        W18093   1.257  29.237  52.888
26170W        W18094   3.764  18.234  52.875
26171W        W18095  41.730  16.769  50.590
26172W        W18096  40.233  21.235  51.511
26173W        W18097  15.742  46.721  51.073
26174W        W18098   7.765  32.720  52.424
26175W        W18099  42.683  15.769  50.578
26176W        W18100  16.768  32.234  49.676
26177W        W18101  28.211   9.250  52.440
26178W        W18102  44.684  43.698  49.698
26179W        W18103  22.263  28.250  51.492
26180W        W18104  40.693  14.774  50.621
26181W        W18105  42.195  27.238  51.947
26182W        W18106  14.738  13.758  52.888
26183W        W18107   6.270  44.211  52.411
26184W        W18108   1.778  25.752  51.974
26185W        W18109  46.678  26.220  50.123
26186W        W18110  47.692   9.783  51.076
26187W        W18111   9.251   1.761  49.674
26188W        W18112   9.772  44.220  51.060
26189W        W18113  18.242  29.242  51.950
26190W        W18114   2.795   5.753  53.345
26191W        W18115  22.245   6.273  52.898
26192W        W18116  22.744  35.713  51.043
26193W        W18117  32.231  14.243  53.349
26194W        W18118  46.205  43.199  51.037
26195W        W18119  36.731  11.772  53.802
26196W        W18120  41.227  18.752  51.526
26197W        W18121  47.711  14.238  53.804
26198W        W18122  33.212   2.793  51.985
26199W        W18123  21.761   8.770  52.862
26200W        W18124   4.743  15.752  50.578
26201W        W18125  46.204  27.743  51.035
26202W        W18126  16.772  43.206  51.958
26203W        W18127  19.241  46.713  53.808
26204W        W18128  33.233  27.252  52.439
26205W        W18129  18.250   5.780  53.796
26206W        W18130  14.775  21.219  51.504
26207W        W18131  16.756   6.758  50.612
26208W        W18132  31.723   3.254  51.039
26209W        W18133  30.240  41.726  53.796
26210W        W18134  38.709  22.231  51.064
26211W        W18135  41.226  25.740  50.582
26212W        W18136  23.733   5.278  52.409
26213W        W18137   4.760  47.717  51.052
26214W        W18138   2.289   7.759  53.357
26215W        W18139   7.762  14.275  53.800
26216W        W18140  43.216  38.216  53.788
26217W        W18141  21.714  46.709  51.529
26218W        W18142  31.208  28.223  50.622
26219W        W18143  42.182  15.251  49.698
26220W        W18144   2.746   6.768  53.346
26221W        W18145  34.699  32.728  51.992
26222W        W18146  30.230  15.234  51.044
26223W        W18147  40.195  16.738  50.601
26224W        W18148  40.226  16.243  51.529
26225W        W18149  13.730   8.736  53.353
26226W        W18150  13.768  27.743  49.680
26227W        W18151   1.791  32.245  52.444
26228W        W18152  32.744  40.233  51.047
26229W        W18153  37.213  45.689  51.533
26230W        W18154  31.235  37.229  49.690
26231W        W18155  37.213   1.278  51.970
26232W        W18156  19.747  43.680  49.700
26233W        W18157  18.732  39.689  51.508
26234W        W18158  23.232   9.743  51.991
26235W        W18159   2.758   4.753  49.669
26236W        W18160  38.697  35.241  52.882
26237W        W18161  13.773   5.774  49.707
26238W        W18162   8.279  21.750  53.320
26239W        W18163  23.723  26.730  50.152
26240W        W18164  33.207  33.718  51.508
26241W        W18165   8.268  15.270  51.989
26242W        W18166  16.726  18.263  53.798
26243W        W18167  17.740  33.205  51.524
26244W        W18168  44.695   0.289  52.892
26245W        W18169  18.223  19.234  52.863
26246W        W18170  48.188  11.266  51.501
26247W        W18171  39.688  28.707  52.436
26248W        W18172  21.727   1.767  51.041
26249W        W18173  40.195  10.246  51.956
26250W        W18174  35.205  37.735  51.958
26251W        W18175  36.708  45.717  51.508
26252W        W18176  27.212   5.263  53.780
26253W        W18177  10.244  21.748  50.151
26254W        W18178  24.758  18.246  53.787
26255W        W18179  43.721  11.765  52.899
26256W        W18180  45.187  17.254  51.531
26257W        W18181  12.240  48.190  50.586
26258W        W18182  22.240  46.176  50.610
26259W        W18183  16.254  35.209  52.428
26260W        W18184  33.223  36.737  53.359
26261W        W18185  34.201  45.186  50.143
26262W        W18186  13.230  10.243  50.121
26263W        W18187   4.273  30.240  50.590
26264W        W18188   6.756  46.193  49.677
26265W        W18189   6.255  40.706  50.580
26266W        W18190  29.723  38.223  53.789
26267W        W18191  40.228  36.196  50.130
26268W        W18192  11.249  44.207  49.699
26269W        W18193  26.745  36.695  52.427
26270W        W18194   9.750  24.735  51.493
26271W        W18195   2.276  11.263  51.966
26272W        W18196  27.753  44.689  52.866
26273W        W18197   1.762  41.230  52.865
26274W        W18198  27.714  18.241  53.791
26275W        W18199  18.759  23.245  51.076
26276W        W18200  12.236  23.230  52.419
26277W        W18201  15.768   9.257  52.434
26278W        W18202  13.263  32.700  53.330
26279W        W18203  27.720  12.268  53.361
26280W        W18204   1.297  12.736  53.357
26281W        W18205   2.795  45.704  52.424
26282W        W18206  14.270  34.236  52.902
26283W        W18207  23.249   3.786  51.042
26284W        W18208  20.253  40.226  52.417
26285W        W18209  15.254   6.252  52.901
26286W        W18210  25.716  44.215  51.532
26287W        W18211  42.215  47.210  49.669
26288W        W18212  42.202  23.230  52.419
26289W        W18213  15.244  32.215  52.413
26290W        W18214  47.707  31.199  49.689
26291W        W18215  26.736  44.215  51.962
26292W        W18216   0.250  17.725  53.330
26293W        W18217  11.258  40.692  50.579
26294W        W18218  38.696  16.272  51.509
26295W        W18219  44.181  34.198  51.517
26296W        W18220  11.769   1.767  52.427
26297W        W18221  36.719  15.740  51.948
26298W        W18222  40.216  37.720  49.678
26299W        W18223  42.699  27.749  51.513
26300W        W18224  45.680  10.778  53.340
26301W        W18225  44.226  24.714  51.499
26302W        W18226   1.266   8.777  49.673
26303W        W18227  35.238   8.739  51.949
26304W        W18228  25.721  35.698  53.354
26305W        W18229  34.227  43.710  49.697
26306W        W18230  27.732  13.247  53.816
26307W        W18231   1.282   2.771  53.813
26308W        W18232  15.235  26.224  50.582
26309W        W18233  22.745  16.737  52.447
26310W        W18234  37.196  14.754  49.671
26311W        W18235   4.746  43.183  52.882
26312W        W18236   4.251  33.213  49.676
26313W        W18237  41.689  21.244  50.582
26314W        W18238  17.728   8.257  51.062
26315W        W18239  46.181   0.259  51.962
26316W        W18240  36.711  47.678  52.404
26317W        W18241  29.221   8.780  49.668
26318W        W18242  18.731  45.723  52.415
26319W        W18243  20.230  24.242  51.059
26320W        W18244  40.718  17.223  52.419
26321W        W18245  43.215  10.747  53.774
26322W        W18246  25.234  10.250  49.700
26323W        W18247  26.718  31.217  52.415
26324W        W18248   0.276  19.250  53.781
26325W        W18249  17.728  19.233  53.809
26326W        W18250  35.715  21.260  53.797
26327W        W18251  27.234  33.240  52.859
26328W        W18252  34.739  19.736  53.818
26329W        W18253  41.189  34.194  51.955
26330W        W18254  10.737  40.197  49.687
26331W        W18255   8.773  23.242  51.527
26332W        W18256   3.291   3.756  52.420
26333W        W18257  26.725   7.280  50.602
26334W        W18258   9.781   8.760  49.682
26335W        W18259  28.211  21.249  51.492
26336W        W18260  44.695  17.233  52.404
26337W        W18261  30.746  15.269  49.708
26338W        W18262   7.281  31.742  51.075
26339W        W18263  32.216  18.732  51.052
26340W        W18264  40.731  37.726  51.060
26341W        W18265  30.729  20.761  49.709
26342W        W18266   8.755  36.710  51.981
26343W        W18267  13.272  15.235  50.130
26344W        W18268   3.790   6.257  53.780
26345W        W18269  23.732  37.689  50.163
26346W        W18270  23.233  18.752  51.960
26347W        W18271  10.767  25.238  52.860
26348W        W18272  19.723  37.695  53.778
26349W        W18273  31.211   4.262  51.947
26350W        W18274  37.731  25.733  51.052
26351W        W18275  36.197   1.295  51.498
26352W        W18276  36.234  20.732  51.500
26353W        W18277  25.251  38.204  51.977
26354W        W18278  45.707  39.227  52.413
26355W        W18279   5.253   9.244  51.982
26356W        W18280  18.762   7.261  52.428
26357W        W18281  15.744  43.199  50.588
26358W        W18282  21.221  30.712  51.974
26359W        W18283  20.220   8.752  52.427
26360W        W18284  24.226  20.732  51.041
26361W        W18285  21.718  35.737  51.043
26362W        W18286  15.273   4.782  51.977
26363W        W18287  44.221  14.242  53.319
26364W        W18288  44.219  27.747  50.590
26365W        W18289   9.748  37.238  52.414
26366W        W18290  15.725  30.245  50.148
26367W        W18291   0.252  48.196  49.708
26368W        W18292  47.691  37.205  50.599
26369W        W18293  15.735  23.733  51.070
26370W        W18294  45.179  48.220  51.036
26371W        W18295  24.732   9.253  53.346
26372W        W18296  12.763   7.284  50.165
26373W        W18297   3.284  24.732  52.870
26374W        W18298  23.752  24.728  50.123
26375W        W18299   7.765  40.217  52.420
26376W        W18300  43.686   6.768  53.811
26377W        W18301  29.213   3.752  51.074
26378W        W18302   6.240   8.261  53.317
26379W        W18303   0.256  44.213  53.356
26380W        W18304  42.219   8.265  51.046
26381W        W18305  12.277  24.213  50.133
26382W        W18306  29.739  29.202  50.154
26383W        W18307   9.738   8.246  53.318
26384W        W18308   2.250  40.231  51.502
26385W        W18309   3.752   2.791  49.670
26386W        W18310   4.286   0.272  52.410
26387W        W18311   2.791   8.785  51.518
26388W        W18312  41.206  12.749  51.519
26389W        W18313  36.215  30.746  51.037
26390W        W18314  20.243  13.762  52.433
26391W        W18315  44.209  19.727  49.703
26392W        W18316  32.713  42.711  51.061
26393W        W18317  16.232  40.730  53.783
26394W        W18318   6.258  43.198  51.035
26395W        W18319  25.236  35.727  50.610
26396W        W18320  29.207  48.174  50.147
26397W        W18321  48.187  12.259  50.587
26398W        W18322  48.195  43.187  50.135
26399W        W18323  18.761  42.698  51.976
26400W        W18324   8.279  42.716  52.435
26401W        W18325  32.223  39.690  51.038
26402W        W18326  33.707  33.729  49.670
26403W        W18327  43.698  36.199  50.159
26404W        W18328  31.743  29.749  51.071
26405W        W18329   1.778  33.206  53.796
26406W        W18330  19.739   7.761  51.978
26407W        W18331  23.256  38.208  51.505
26408W        W18332  15.239  23.736  51.514
26409W        W18333  21.262  33.206  50.132
26410W        W18334  12.274  16.737  52.438
26411W        W18335  26.708   6.276  51.517
26412W        W18336  39.222  18.225  51.052
26413W        W18337  41.703   0.770  50.600
26414W        W18338  25.242  12.239  52.877
26415W        W18339  13.231  14.240  52.890
26416W        W18340   5.284  21.225  53.328
26417W        W18341  22.759  41.218  51.079
26418W        W18342   0.286  19.228  51.049
26419W        W18343   5.744  19.266  51.978
26420W        W18344   8.748  21.221  51.957
26421W        W18345  32.729  27.731  52.432
26422W        W18346  39.204   7.266  51.949
26423W        W18347  44.213  30.731  51.065
26424W        W18348   0.290   5.772  53.810
26425W        W18349  20.725  13.231  50.584
26426W        W18350  40.195  13.240  50.161
26427W        W18351  39.224  23.254  50.153
26428W        W18352   7.243  26.235  49.688
26429W        W18353  26.744  28.732  52.899
26430W        W18354  19.238   1.263  52.868
26431W        W18355  25.212   1.789  51.500
26432W        W18356   1.260   9.249  50.134
26433W        W18357  17.256  47.714  51.494
26434W        W18358   0.754  26.748  50.127
26435W        W18359  37.723   6.755  51.531
26436W        W18360  45.199  14.272  53.345
26437W        W18361  46.677  26.728  50.125
26438W        W18362  46.722  10.763  53.336
26439W        W18363   6.777  12.261  51.978
26440W        W18364   5.746  28.730  51.509
26441W        W18365  30.250  39.723  50.581
26442W        W18366  25.740   9.256  51.035
26443W        W18367  41.196  24.245  49.673
26444W        W18368   5.779  45.192  49.675
26445W        W18369  26.243  46.204  51.051
26446W        W18370   4.746  28.231  53.799
26447W        W18371  43.200  35.213  53.361
26448W        W18372  25.209  40.209  50.593
26449W        W18373  11.760  37.729  53.327
26450W        W18374  46.185  14.732  50.598
26451W        W18375  18.240  46.699  52.870
26452W        W18376  30.234  20.225  50.583
26453W        W18377  48.174   9.238  52.877
26454W        W18378  37.730  38.226  52.872
26455W        W18379   9.240  12.270  53.333
26456W        W18380  36.216  37.688  51.962
26457W        W18381  15.267  35.194  53.790
26458W        W18382  47.713  13.770  51.040
26459W        W18383  32.709  19.221  53.317
26460W        W18384  23.221  15.727  52.885
26461W        W18385  45.177   8.260  49.685
26462W        W18386  18.260  11.260  51.056
26463W        W18387  19.743   5.246  52.444
26464W        W18388   4.266  47.699  50.151
26465W        W18389  29.729  13.235  50.590
26466W        W18390  46.712  30.222  49.705
26467W        W18391  26.222  35.712  51.967
26468W        W18392   0.291  11.753  51.525
26469W        W18393   7.775  38.717  53.810
26470W        W18394  11.248  15.258  51.527
26471W        W18395  45.200  16.740  50.617
26472W        W18396  34.733   5.752  50.599
26473W        W18397  28.235  25.246  51.980
26474W        W18398   0.765  29.229  50.622
26475W        W18399  12.753  37.227  52.886
26476W        W18400  17.241  40.703  50.158
26477W        W18401  16.230  10.253  50.124
26478W        W18402  24.722  12.753  52.876
26479W        W18403  24.741  39.227  53.339
26480W        W18404   3.758  18.251  50.146
26481W        W18405  28.239   1.263  50.616
26482W        W18406  24.757  24.732  51.529
26483W        W18407   2.275  36.231  51.507
26484W        W18408  24.239   8.267  49.668
26485W        W18409  32.735   4.247  51.497
26486W        W18410  34.196  45.685  51.532
26487W        W18411  47.716  27.746  49.670
26488W        W18412  45.702  19.766  53.350
26489W        W18413  15.246  15.728  51.533
26490W        W18414  44.204  25.225  53.799
26491W        W18415  14.775   8.739  52.407
26492W        W18416  22.716  12.742  51.534
26493W        W18417  32.730  43.696  51.049
26494W        W18418  11.247  26.738  51.950
26495W        W18419   3.775  15.753  50.586
26496W        W18420   1.779  38.206  50.163
26497W        W18421  19.242  33.730  51.951
26498W        W18422  46.687   8.254  53.317
26499W        W18423  32.245  10.751  52.889
26500W        W18424  11.257  34.731  52.877
26501W        W18425  24.733   7.743  50.605
26502W        W18426  35.216  42.723  52.872
26503W        W18427  38.719  13.266  53.809
26504W        W18428  11.249   3.786  50.155
26505W        W18429  28.708  36.733  50.599
26506W        W18430  13.275  17.269  52.421
26507W        W18431  26.736  39.215  53.784
26508W        W18432  44.724   3.746  49.684
26509W        W18433   7.749  47.700  49.695
26510W        W18434  36.716  41.220  51.040
26511W        W18435  31.738   8.767  51.530
26512W        W18436  20.234  16.748  49.702
26513W        W18437  42.224   5.780  49.703
26514W        W18438  27.237  22.244  50.144
26515W        W18439  14.730   8.746  50.578
26516W        W18440  26.208  21.758  53.777
26517W        W18441  21.244  30.746  50.164
26518W        W18442  43.198  11.279  53.324
26519W        W18443  10.237  15.760  52.424
26520W        W18444  34.209  32.242  53.788
26521W        W18445  25.757   0.273  51.056
26522W        W18446  11.746  38.196  51.039
26523W        W18447  27.712   5.772  50.602
26524W        W18448   7.243  38.704  51.507
26525W        W18449  11.244   1.275  53.791
26526W        W18450  34.702  36.209  51.516
26527W        W18451  29.739  24.728  51.043
26528W        W18452  12.764  26.726  51.990
26529W        W18453  35.237  41.683  52.870
26530W        W18454  22.259   8.768  51.978
26531W        W18455  12.270  33.728  49.699
26532W        W18456  33.237  20.246  49.669
26533W        W18457   1.768  41.216  51.075
26534W        W18458  27.250  36.719  52.425
26535W        W18459  38.217  48.186  49.695
26536W        W18460  41.692  24.730  51.985
26537W        W18461  40.727  44.718  53.336
26538W        W18462  29.229  10.768  53.792
26539W        W18463  38.707  35.729  53.333
26540W        W18464  18.769  21.256  51.071
26541W        W18465   9.777  15.740  51.075
26542W        W18466  18.759   4.261  53.325
26543W        W18467  39.720  11.764  51.040
26544W        W18468   5.785  21.224  53.351
26545W        W18469  18.253  38.211  51.962
26546W        W18470  34.235  46.697  50.165
26547W        W18471  38.688  26.222  50.604
26548W        W18472  20.717  43.698  51.037
26549W        W18473  44.708  24.221  52.429
26550W        W18474   4.774  12.243  50.620
26551W        W18475  32.236  33.713  51.062
26552W        W18476  27.252  38.732  53.344
26553W        W18477  36.226  31.242  51.511
26554W        W18478  20.730  14.248  50.606
26555W        W18479  33.742   6.788  52.896
26556W        W18480  47.719   0.791  51.049
26557W        W18481  46.205  47.720  52.872
26558W        W18482   7.779   6.264  50.580
26559W        W18483   5.278  40.708  52.861
26560W        W18484  36.728   8.740  52.863
26561W        W18485  30.711  38.224  53.323
26562W        W18486  26.241  16.726  50.618
26563W        W18487  23.742  17.744  50.606
26564W        W18488  19.265  12.757  52.437
26565W        W18489  47.708   4.278  53.780
26566W        W18490   7.263   5.760  53.317
26567W        W18491  26.219  18.227  50.612
26568W        W18492  21.763   0.749  51.499
26569W        W18493  40.726  11.280  51.986
26570W        W18494   6.782   2.791  51.514
26571W        W18495  36.730   3.261  52.411
26572W        W18496  14.756  46.213  53.798
26573W        W18497  39.223  41.713  50.597
26574W        W18498  28.235  43.684  53.792
26575W        W18499  39.197  41.188  53.792
26576W        W18500  13.757  21.760  53.811
26577W        W18501  39.234  40.205  50.146
26578W        W18502  38.709   9.758  53.331
26579W        W18503  16.264  18.261  51.528
26580W        W18504  44.691  44.694  49.680
26581W        W18505  22.747   4.771  49.700
26582W        W18506  10.264  22.725  53.802
26583W        W18507   9.278   9.259  53.332
26584W        W18508  17.244  13.256  51.953
26585W        W18509   8.781  36.705  50.615
26586W        W18510   3.772   3.748  53.318
26587W        W18511  28.227  11.737  51.949
26588W        W18512  33.203  41.710  53.340
26589W        W18513   8.761  15.750  51.515
26590W        W18514  25.226  11.763  53.780
26591W        W18515  46.696  29.218  50.125
26592W        W18516  37.217  38.722  52.404
26593W        W18517  45.695  27.753  49.699
26594W        W18518   8.744   7.239  52.863
26595W        W18519   6.240  46.218  49.693
26596W        W18520  20.240  10.733  53.337
26597W        W18521  19.264  36.213  52.861
26598W        W18522  14.251  37.698  52.888
26599W        W18523  33.199  44.184  49.677
26600W        W18524   8.242  32.203  52.444
26601W        W18525  27.212  33.737  50.617
26602W        W18526  30.219  19.734  49.672
26603W        W18527   3.276   4.744  52.441
26604W        W18528   8.249  32.201  51.976
26605W        W18529   2.752  10.749  50.610
26606W        W18530   5.257  27.707  51.528
26607W        W18531  31.714  41.682  52.408
26608W        W18532  33.201   3.763  50.153
26609W        W18533   3.249  17.729  51.534
26610W        W18534  38.690  45.704  50.139
26611W        W18535  15.762  12.239  50.125
26612W        W18536  24.715  31.243  51.065
26613W        W18537  44.717  25.723  51.528
26614W        W18538  18.760  23.251  52.877
26615W        W18539   8.243   3.249  52.901
26616W        W18540   2.757  41.207  52.430
26617W        W18541  12.274   4.247  52.435
26618W        W18542   9.737  21.228  52.410
26619W        W18543  26.246  20.258  53.318
26620W        W18544  32.696  29.207  49.698
26621W        W18545  40.197   4.761  51.984
26622W        W18546   6.281  46.179  52.413
26623W        W18547  32.741  16.745  51.530
26624W        W18548  45.700  18.241  52.894
26625W        W18549  29.713   1.787  52.871
26626W        W18550  17.222   7.254  51.506
26627W        W18551   6.749  19.753  53.332
26628W        W18552  17.749  41.194  53.318
26629W        W18553  43.183  48.198  51.972
26630W        W18554  29.242  45.724  52.871
26631W        W18555  21.750  24.225  51.042
26632W        W18556  10.258   6.264  51.967
26633W        W18557  40.690  40.206  49.690
26634W        W18558  17.746   1.778  49.669
26635W        W18559  31.209  26.755  53.343
26636W        W18560   9.756   9.257  51.061
26637W        W18561  32.202  17.724  52.865
26638W        W18562  30.737  27.211  52.423
26639W        W18563   5.244  12.751  52.868
26640W        W18564  22.742  39.688  52.867
26641W        W18565  12.739  37.210  51.497
26642W        W18566   2.248   4.291  51.034
26643W        W18567  11.277  13.734  53.346
26644W        W18568   9.777  18.251  53.800
26645W        W18569  24.730  30.736  51.951
26646W        W18570  23.726  35.201  50.609
26647W        W18571  32.225   9.743  53.814
26648W        W18572  24.725  44.181  50.140
26649W        W18573  20.737  25.735  49.694
26650W        W18574  16.263   5.283  52.440
26651W        W18575  21.760  34.238  52.433
26652W        W18576  45.718  39.190  51.513
26653W        W18577   1.749  23.256  53.345
26654W        W18578  11.253  36.211  53.348
26655W        W18579  44.705  21.756  53.789
26656W        W18580  45.208  38.696  52.875
26657W        W18581  45.681  19.756  53.802
26658W        W18582   6.742  16.235  50.132
26659W        W18583   1.770  31.731  51.523
26660W        W18584   9.741  35.720  50.156
26661W        W18585  22.219  22.715  52.433
26662W        W18586  25.216  36.735  53.777
26663W        W18587  24.724  10.262  51.531
26664W        W18588   9.769   9.777  50.583
26665W        W18589  44.692  39.710  51.982
26666W        W18590  26.725  22.724  53.337
26667W        W18591  22.246   0.749  50.123
26668W        W18592  26.710  33.204  52.414
26669W        W18593  33.228  16.255  52.885
26670W        W18594   2.747  28.244  49.703
26671W        W18595  11.739   4.274  50.589
26672W        W18596  17.240   7.250  53.812
26673W        W18597   6.244   0.266  52.414
26674W        W18598   9.780  44.689  51.976
26675W        W18599   3.749  31.200  49.683
26676W        W18600  11.272  27.733  53.772
26677W        W18601   0.257  14.227  52.867
26678W        W18602  37.202   2.254  52.429
26679W        W18603   2.769   3.255  51.515
26680W        W18604  35.195  23.735  49.676
26681W        W18605  15.741  40.714  53.816
26682W        W18606  41.718  17.224  50.585
26683W        W18607   7.280   4.273  52.889
26684W        W18608   6.757   9.243  49.679
26685W        W18609  32.712   3.792  51.036
26686W        W18610   5.271  20.747  49.682
26687W        W18611  29.730  23.736  51.957
26688W        W18612  44.686  34.205  51.955
26689W        W18613  12.276  32.202  53.798
26690W        W18614   7.754  46.183  50.588
26691W        W18615  13.248  12.273  50.590
26692W        W18616  36.715   4.291  52.883
26693W        W18617  21.249  39.715  51.517
26694W        W18618   0.778  15.272  51.531
26695W        W18619  46.697  29.730  50.621
26696W        W18620  14.242  21.758  52.429
26697W        W18621  30.733   2.747  51.962
26698W        W18622  34.703  47.682  51.061
26699W        W18623  35.241   9.284  49.671
26700W        W18624  11.276  28.236  50.156
26701W        W18625  17.759   7.773  50.611
26702W        W18626  14.767  21.747  49.690
26703W        W18627  42.714  10.750  53.816
26704W        W18628  38.192  31.731  53.778
26705W        W18629  47.188  33.706  53.357
26706W        W18630  34.218   3.752  51.071
26707W        W18631   5.750  42.201  52.860
26708W        W18632   6.256  37.196  49.694
26709W        W18633  33.207  42.202  51.991
26710W        W18634   4.256  25.242  49.670
26711W        W18635  10.272  17.741  52.885
26712W        W18636  45.181  14.733  53.336
26713W        W18637  17.736  38.730  49.683
26714W        W18638  42.221  45.195  50.145
26715W        W18639   2.772   3.265  53.789
26716W        W18640  12.271  13.250  52.414
26717W        W18641  21.242  17.236  51.518
26718W        W18642  25.249  37.233  51.045
26719W        W18643  18.229  44.718  49.691
26720W        W18644  25.747  41.190  50.134
26721W        W18645  29.716  12.238  53.805
26722W        W18646  41.718  32.244  51.065
26723W        W18647  39.702  44.219  49.675
26724W        W18648  10.777  38.688  49.699
26725W        W18649  35.218  31.237  52.895
26726W        W18650   8.271  39.232  51.525
26727W        W18651  24.745  48.198  51.053
26728W        W18652  18.752  43.706  51.960
26729W        W18653   6.776  36.206  53.351
26730W        W18654  39.714  26.706  51.951
26731W        W18655   7.282   4.768  53.330
26732W        W18656  11.275  35.717  53.783
26733W        W18657  20.725   5.754  53.817
26734W        W18658  41.711  23.249  51.046
26735W        W18659  15.773  24.251  50.612
26736W        W18660   0.764  35.192  51.514
26737W        W18661  31.698  13.769  53.355
26738W        W18662  39.688   5.783  52.426
26739W        W18663  17.733  43.195  53.792
26740W        W18664   7.742  21.750  50.578
26741W        W18665   4.263  21.216  51.964
26742W        W18666  20.717  38.711  51.055
26743W        W18667  45.722  18.259  51.974
26744W        W18668  28.239  29.748  51.960
26745W        W18669  20.251  19.728  51.507
26746W        W18670  15.245   2.778  53.343
26747W        W18671   5.281  30.215  51.519
26748W        W18672  29.204  36.228  53.330
26749W        W18673   1.761  29.728  53.330
26750W        W18674  16.765  31.708  51.078
26751W        W18675  31.219  31.704  50.581
26752W        W18676  32.219   5.745  51.051
26753W        W18677  39.708  32.719  52.423
26754W        W18678  23.719  28.227  51.500
26755W        W18679  47.207   8.284  52.870
26756W        W18680   8.751   1.275  50.123
26757W        W18681  14.253   3.247  51.969
26758W        W18682  25.709  20.730  53.334
26759W        W18683  22.217  41.200  53.782
26760W        W18684  35.710  35.224  53.326
26761W        W18685   9.777  10.233  51.521
26762W        W18686  39.217  11.768  53.790
26763W        W18687  32.227  13.277  51.983
26764W        W18688  45.186  13.729  50.588
26765W        W18689   0.265  37.704  50.608
26766W        W18690  44.707  24.731  50.587
26767W        W18691  37.209  21.231  53.323
26768W        W18692  43.201   9.265  52.430
26769W        W18693  36.697  12.746  50.600
26770W        W18694   1.289   1.793  51.077
26771W        W18695  17.751   5.786  51.955
26772W        W18696  35.726  40.204  52.430
26773W        W18697  43.213  20.236  51.528
26774W        W18698  37.212  30.709  51.510
26775W        W18699  12.735  17.740  51.987
26776W        W18700  39.207  18.739  51.977
26777W        W18701   7.240  23.235  50.584
26778W        W18702   2.272  41.206  49.679
26779W        W18703  12.729  11.762  53.797
26780W        W18704   9.284  43.192  50.147
26781W        W18705  44.207  13.739  51.963
26782W        W18706  46.700  14.248  51.078
26783W        W18707  38.222  38.706  53.814
26784W        W18708  28.226  12.238  51.517
26785W        W18709  26.242  11.758  49.674
26786W        W18710  45.719   6.279  52.407
26787W        W18711  40.223   9.257  51.967
26788W        W18712  41.720  28.210  52.877
26789W        W18713  12.256  12.732  50.121
26790W        W18714  16.763  10.760  50.603
26791W        W18715  25.252  28.720  53.352
26792W        W18716  31.242  21.223  52.403
26793W        W18717  26.750  21.259  52.424
26794W        W18718  34.740   9.746  50.158
26795W        W18719   2.295  29.751  51.977
26796W        W18720  42.703   1.752  53.316
26797W        W18721  42.715  35.195  50.148
26798W        W18722   2.791  26.246  53.773
26799W        W18723  16.746  15.247  51.957
26800W        W18724  44.678  39.722  49.682
26801W        W18725   7.782  34.694  52.883
26802W        W18726  28.251  28.743  50.142
26803W        W18727   7.286  14.742  51.058
26804W        W18728   8.782  22.727  52.403
26805W        W18729  45.686  16.255  50.587
26806W        W18730  33.214   9.748  51.978
26807W        W18731  32.200   5.745  51.979
26808W        W18732   0.270  36.724  51.510
26809W        W18733   9.257  47.217  51.973
26810W        W18734  27.722   6.254  53.342
26811W        W18735  25.213  26.742  52.417
26812W        W18736  13.275  22.253  50.609
26813W        W18737  26.241   4.770  51.985
26814W        W18738  21.737   7.742  51.491
26815W        W18739  32.709   6.757  51.055
26816W        W18740  32.726  25.240  51.506
26817W        W18741  22.732   3.249  49.701
26818W        W18742  33.223  20.720  51.047
26819W        W18743  42.218  12.773  50.586
26820W        W18744  15.239  13.270  53.796
26821W        W18745   6.265  37.200  50.125
26822W        W18746  30.235  37.237  53.792
26823W        W18747  15.735  14.259  53.321
26824W        W18748  30.730   8.739  49.698
26825W        W18749  16.744  39.222  50.612
26826W        W18750  38.713  42.225  53.357
26827W        W18751  38.690  11.736  52.440
26828W        W18752  32.738  36.694  49.676
26829W        W18753   6.782  10.233  50.142
26830W        W18754   6.253  17.262  51.036
26831W        W18755  33.228  23.745  53.341
26832W        W18756  17.236  45.711  53.326
26833W        W18757  27.741  28.741  51.503
26834W        W18758  10.759  30.727  51.963
26835W        W18759  21.224  22.737  50.611
26836W        W18760   2.256  47.194  51.068
26837W        W18761  37.726  11.736  52.448
26838W        W18762  13.278  34.225  50.585
26839W        W18763  19.747  18.236  51.511
26840W        W18764  28.732  37.695  53.780
26841W        W18765  30.243   2.285  51.532
26842W        W18766   1.281  19.731  53.809
26843W        W18767   2.793  22.255  50.143
26844W        W18768   9.763  16.766  51.955
26845W        W18769   4.791  27.210  51.956
26846W        W18770  36.231  38.721  53.349
26847W        W18771  37.715  12.740  53.360
26848W        W18772  24.256  34.737  53.812
26849W        W18773  12.746   9.274  52.404
26850W        W18774  27.728   0.288  51.500
26851W        W18775  47.198  15.239  51.058
26852W        W18776   1.250   2.275  51.511
26853W        W18777  11.779   2.757  52.415
26854W        W18778   1.280  23.722  53.346
26855W        W18779  37.232  19.732  53.809
26856W        W18780  34.205   1.789  53.807
26857W        W18781   9.278  18.761  51.073
26858W        W18782  32.214   1.269  52.422
26859W        W18783   3.786  24.242  52.447
26860W        W18784  35.738   1.295  49.669
26861W        W18785  17.731  16.733  53.346
26862W        W18786  19.763   8.764  52.871
26863W        W18787  13.268  17.247  53.316
26864W        W18788  38.731  41.684  52.867
26865W        W18789  30.722  10.780  50.596
26866W        W18790   4.254  30.243  53.342
26867W        W18791  40.726  17.765  50.152
26868W        W18792  39.209  40.715  52.868
26869W        W18793  23.748  10.252  52.428
26870W        W18794  15.232   8.767  53.810
26871W        W18795  17.251  24.228  50.604
26872W        W18796  30.240  28.736  50.156
26873W        W18797  11.737  31.237  52.904
26874W        W18798  39.707  42.715  50.585
26875W        W18799  45.189  40.688  53.323
26876W        W18800   0.280  23.253  52.424
26877W        W18801  30.249  26.224  51.990
26878W        W18802  28.206  26.229  52.421
26879W        W18803   0.292  42.182  53.349
26880W        W18804  33.718  25.711  52.861
26881W        W18805  31.231  41.192  51.490
26882W        W18806  36.236  43.709  51.963
26883W        W18807   6.758  16.272  52.438
26884W        W18808  10.764   1.291  53.816
26885W        W18809  10.759  36.230  51.966
26886W        W18810  18.254  35.730  49.684
26887W        W18811  25.718  36.726  52.419
26888W        W18812  28.237   2.767  51.949
26889W        W18813   0.264  41.683  53.324
26890W        W18814  21.257  14.732  51.532
26891W        W18815  35.694  40.208  49.680
26892W        W18816  43.721   8.762  53.781
26893W        W18817   8.269  28.222  50.159
26894W        W18818  41.718   4.279  52.403
26895W        W18819  33.701   9.235  53.776
26896W        W18820  47.196  39.188  51.966
26897W        W18821  23.232  21.258  50.599
26898W        W18822  34.717  25.248  50.146
26899W        W18823  11.279  23.232  50.133
26900W        W18824  11.767  41.730  50.594
26901W        W18825  39.197  41.213  49.667
26902W        W18826   0.268  22.230  50.588
26903W        W18827  11.746  30.728  51.037
26904W        W18828  26.223  32.229  50.146
26905W        W18829  42.714   7.286  52.870
26906W        W18830  19.745  44.685  52.418
26907W        W18831  15.256  39.200  50.150
26908W        W18832  43.691  16.231  52.888
26909W        W18833   5.788   2.287  53.810
26910W        W18834  27.745  19.721  53.317
26911W        W18835   8.781  46.702  50.583
26912W        W18836  41.729   3.249  53.343
26913W        W18837  25.730   7.267  51.974
26914W        W18838  45.721  11.249  50.157
26915W        W18839  44.223  24.757  53.342
26916W        W18840   1.294   8.248  50.148
26917W        W18841   9.239  30.204  51.975
26918W        W18842   0.789  42.684  50.617
26919W        W18843  48.184  33.213  53.795
26920W        W18844   1.294  47.209  51.047
26921W        W18845  12.759  34.194  51.979
26922W        W18846  17.271  10.776  51.514
26923W        W18847  20.734  22.715  51.037
26924W        W18848  48.203  37.692  53.790
26925W        W18849  31.732  10.779  53.802
26926W        W18850   8.741  33.706  53.322
26927W        W18851  25.214  35.224  52.873
26928W        W18852   9.255  21.245  50.130
26929W        W18853   7.261  12.747  53.354
26930W        W18854  22.245  46.694  49.671
26931W        W18855  12.240  38.218  51.492
26932W        W18856  44.702  44.720  53.358
26933W        W18857  38.693  29.248  52.884
26934W        W18858  22.723  45.690  50.597
26935W        W18859  10.767  18.233  53.326
26936W        W18860  20.259   7.249  51.034
26937W        W18861   1.291   6.785  53.806
26938W        W18862  24.254   0.271  51.962
26939W        W18863  37.238  31.715  49.688
26940W        W18864   1.293  41.713  53.794
26941W        W18865   2.761   0.296  51.040
26942W        W18866  46.221  34.197  51.526
26943W        W18867  30.716  43.204  53.322
26944W        W18868  24.751  32.710  51.500
26945W        W18869   3.291  24.252  52.894
26946W        W18870  41.218  24.731  52.899
26947W        W18871  46.706   9.745  53.782
26948W        W18872  34.702  43.703  52.891
26949W        W18873  13.768  39.193  50.144
26950W        W18874  17.735  13.247  53.353
26951W        W18875  29.727  17.243  53.792
26952W        W18876  20.751  16.732  51.947
26953W        W18877  25.735  28.729  51.973
26954W        W18878  26.721   2.771  52.435
26955W        W18879  36.191  26.713  51.075
26956W        W18880  14.239  41.705  51.977
26957W        W18881   5.765  13.751  50.588
26958W        W18882   2.258  11.736  53.338
26959W        W18883   8.752   7.739  50.166
26960W        W18884  13.736  16.764  52.427
26961W        W18885   2.254  47.194  50.588
26962W        W18886  32.224  20.750  51.529
26963W        W18887   8.785  45.695  52.874
26964W        W18888  39.197  22.735  52.435
26965W        W18889  15.262  26.741  50.145
26966W        W18890  38.687   8.757  51.502
26967W        W18891  37.227  18.750  50.613
26968W        W18892  48.209  34.723  51.061
26969W        W18893  45.698  34.236  53.800
26970W        W18894  31.235  25.243  51.064
26971W        W18895  38.720   9.282  50.613
26972W        W18896  31.200  24.727  50.597
26973W        W18897  24.710  27.752  50.131
26974W        W18898  28.251  31.217  53.793
26975W        W18899  39.214  46.218  51.509
26976W        W18900   0.750  47.703  49.699
26977W        W18901  23.744  14.760  53.346
26978W        W18902  10.769  21.258  51.532
26979W        W18903   4.763   1.260  51.980
26980W        W18904  45.204  21.247  50.582
26981W        W18905  20.242  36.237  49.685
26982W        W18906  46.176   6.785  49.677
26983W        W18907   2.268  26.245  51.528
26984W        W18908  25.255  13.255  49.702
26985W        W18909  29.751  39.220  51.037
26986W        W18910   8.754  36.225  51.988
26987W        W18911  37.218   1.762  52.447
26988W        W18912  21.245  12.743  52.874
26989W        W18913  23.259  44.680  52.876
26990W        W18914  16.224  38.210  50.583
26991W        W18915  41.721  23.761  53.320
26992W        W18916  11.273  11.257  53.330
26993W        W18917  33.235  32.706  52.425
26994W        W18918   3.787   4.768  49.694
26995W        W18919   2.282  22.757  50.165
26996W        W18920  17.245  40.715  49.697
26997W        W18921  45.677  38.201  51.968
26998W        W18922   8.248   8.779  52.883
26999W        W18923  26.749  33.723  52.437
27000W        W18924  20.750  44.700  51.074
27001W        W18925  12.251  47.196  53.352
27002W        W18926   0.754  32.236  53.356
27003W        W18927  16.256   7.780  53.360
27004W        W18928  11.777  19.751  51.527
27005W        W18929  21.732  25.741  51.513
27006W        W18930  30.218  26.230  52.440
27007W        W18931  27.228  11.253  51.069
27008W        W18932   7.750  37.217  52.882
27009W        W18933  36.235  46.704  53.361
27010W        W18934   2.262  15.257  51.074
27011W        W18935   7.261  42.694  52.890
27012W        W18936  40.686  39.189  51.054
27013W        W18937  43.189  41.191  50.597
27014W        W18938  20.718  36.718  51.069
27015W        W18939  20.229   2.789  51.053
27016W        W18940  21.759  41.716  49.686
27017W        W18941  23.730  15.766  50.599
27018W        W18942  24.745  27.751  49.691
27019W        W18943  35.701   9.261  49.702
27020W        W18944  43.197  34.229  52.422
27021W        W18945   3.744  29.213  52.879
27022W        W18946  31.240  18.225  51.533
27023W        W18947  42.205  21.753  51.527
27024W        W18948   7.238   6.755  53.787
27025W        W18949  11.264  12.268  51.495
27026W        W18950  21.739  28.231  49.707
27027W        W18951  21.216  18.225  52.870
27028W        W18952   6.758  37.192  52.877
27029W        W18953  32.224  24.230  50.583
27030W        W18954  29.236  21.716  52.888
27031W        W18955  16.268  13.265  53.322
27032W        W18956  11.735  35.238  51.505
27033W        W18957   9.743  22.752  50.604
27034W        W18958  18.731  43.693  52.428
27035W        W18959  29.215  16.267  50.622
27036W        W18960  22.746  25.256  49.689
27037W        W18961  36.736  45.218  49.697
27038W        W18962  48.197  37.221  50.147
27039W        W18963  24.723   2.747  51.078
27040W        W18964   9.276  29.730  52.417
27041W        W18965  43.185  43.726  49.675
27042W        W18966  48.201   8.753  50.162
27043W        W18967   8.760  31.707  52.446
27044W        W18968  25.237  16.750  49.675
27045W        W18969  28.729  43.217  51.507
27046W        W18970  48.190  23.759  53.802
27047W        W18971   7.778  38.695  50.146
27048W        W18972   4.264  16.742  50.161
27049W        W18973   5.291   1.764  52.416
27050W        W18974  22.738  46.194  52.880
27051W        W18975  33.225  36.711  51.521
27052W        W18976  44.180  16.226  51.954
27053W        W18977  48.193  21.233  50.140
27054W        W18978  44.209  47.197  53.356
27055W        W18979  46.187  22.228  51.977
27056W        W18980  20.244  31.212  52.869
27057W        W18981  33.236  27.709  52.888
27058W        W18982  29.718   7.276  51.951
27059W        W18983  32.699  31.713  51.526
27060W        W18984   2.292  26.737  53.344
27061W        W18985   9.771   1.760  52.890
27062W        W18986  46.223  41.702  51.047
27063W        W18987  29.246  34.722  51.977
27064W        W18988  12.238  15.233  50.583
27065W        W18989  23.744  19.721  51.056
27066W        W18990  27.749  31.247  51.949
27067W        W18991   2.764   0.765  49.672
27068W        W18992  14.255  11.774  50.141
27069W        W18993  23.238  31.204  52.870
27070W        W18994  40.703  20.255  51.530
27071W        W18995   4.743  18.268  51.964
27072W        W18996  24.227   8.762  49.694
27073W        W18997  34.716  36.735  51.983
27074W        W18998   2.291  28.745  51.040
27075W        W18999  21.763  30.238  51.074
27076W        W19000  34.705  41.688  50.147
27077W        W19001  43.684  19.757  51.043
27078W        W19002  24.250  34.240  51.518
27079W        W19003  25.227  35.722  52.868
27080W        W19004   8.253  25.228  51.991
27081W        W19005  44.710  36.224  51.065
27082W        W19006  35.730   1.271  52.436
27083W        W19007  15.273  32.702  49.693
27084W        W19008   8.242   7.753  53.321
27085W        W19009  34.219   0.798  53.813
27086W        W19010   8.258  29.746  50.136
27087W        W19011  40.203  26.214  52.403
27088W        W19012  18.268  15.745  51.519
27089W        W19013  24.735  32.224  53.330
27090W        W19014  29.749  26.741  52.861
27091W        W19015  34.740  17.739  49.673
27092W        W19016  43.712  30.711  52.882
27093W        W19017  40.196   3.264  52.428
27094W        W19018  47.177  47.192  50.164
27095W        W19019  26.234  29.708  49.709
27096W        W19020   1.264  46.187  49.673
27097W        W19021  48.182  45.676  50.585
27098W        W19022  16.263   8.782  51.034
27099W        W19023   1.280  33.740  52.414
27100W        W19024  12.250  18.226  53.808
27101W        W19025  26.709  33.704  51.052
27102W        W19026  22.243  13.759  51.077
27103W        W19027  17.245  32.234  52.893
27104W        W19028   5.265   7.777  53.345
27105W        W19029  40.186   3.761  51.978
27106W        W19030  16.234  15.740  50.601
27107W        W19031  17.743  25.246  52.434
27108W        W19032   6.241  31.744  53.352
27109W        W19033  12.263  10.254  50.598
27110W        W19034  40.731   7.776  50.584
27111W        W19035  25.256  16.252  50.142
27112W        W19036   4.271  20.720  52.864
27113W        W19037  30.240   2.249  50.606
27114W        W19038  20.246  23.219  51.984
27115W        W19039  23.236   2.265  50.623
27116W        W19040  22.744   2.261  50.149
27117W        W19041  30.712  30.235  50.609
27118W        W19042  44.224  25.720  50.139
27119W        W19043  35.705  14.748  49.670
27120W        W19044  43.690  39.726  52.888
27121W        W19045   4.788  12.252  52.890
27122W        W19046  36.705   3.268  50.605
27123W        W19047  37.737  34.228  51.528
27124W        W19048  42.227  23.256  50.583
27125W        W19049  21.242  19.728  50.582
27126W        W19050   5.759  37.731  51.038
27127W        W19051  20.750  17.266  50.597
27128W        W19052  24.716  37.695  50.608
27129W        W19053  12.741   4.783  51.514
27130W        W19054   1.298  12.767  51.074
27131W        W19055   9.779  27.723  52.869
27132W        W19056  24.243  18.240  51.071
27133W        W19057  37.723  46.692  51.040
27134W        W19058  44.692  37.694  51.046
27135W        W19059  21.227  31.248  49.685
27136W        W19060  14.762  29.204  51.038
27137W        W19061  40.727  20.746  50.164
27138W        W19062  25.716  13.262  50.589
27139W        W19063  20.237  15.732  51.981
27140W        W19064   7.756  12.776  53.340
27141W        W19065  42.221  24.247  52.422
27142W        W19066  20.736  13.734  50.141
27143W        W19067   3.786   7.270  51.044
27144W        W19068   4.263  23.734  50.590
27145W        W19069  23.757   7.778  52.441
27146W        W19070  31.226   3.773  53.336
27147W        W19071  34.719  30.209  51.954
27148W        W19072  39.706  23.251  49.706
27149W        W19073  40.686   1.265  52.430
27150W        W19074  28.214  24.231  53.790
27151W        W19075  40.217  38.225  50.582
27152W        W19076  30.236  43.712  53.814
27153W        W19077  26.243   2.255  50.154
27154W        W19078  33.222  17.223  50.620
27155W        W19079  18.748  27.255  51.508
27156W        W19080  39.705   0.777  52.417
27157W        W19081  37.194  21.242  51.040
27158W        W19082  31.236  44.699  52.883
27159W        W19083  39.722   9.761  52.434
27160W        W19084  13.734  37.716  53.795
27161W        W19085  33.222  43.681  53.350
27162W        W19086  10.768  32.243  51.520
27163W        W19087  37.694  20.750  53.351
27164W        W19088  16.259  40.699  51.968
27165W        W19089  24.219  18.733  51.512
27166W        W19090  41.222  38.229  51.526
27167W        W19091  15.245  27.725  52.403
27168W        W19092   8.256   6.786  52.861
27169W        W19093  44.720   1.775  50.586
27170W        W19094  16.259  40.706  53.357
27171W        W19095  43.217  34.717  53.327
27172W        W19096   7.776  33.730  51.498
27173W        W19097  22.717  31.241  53.793
27174W        W19098   8.258  36.221  50.157
27175W        W19099  42.227  16.224  49.688
27176W        W19100  36.700  27.210  52.871
27177W        W19101  43.699  24.255  52.415
27178W        W19102   7.275  15.726  51.513
27179W        W19103  18.748  19.758  50.122
27180W        W19104  14.250  41.688  49.682
27181W        W19105   4.252  30.714  50.612
27182W        W19106  25.245   6.759  50.609
27183W        W19107  39.729  47.199  50.124
27184W        W19108  39.211  19.734  51.039
27185W        W19109  24.250  18.255  52.875
27186W        W19110  15.773  37.205  51.504
27187W        W19111  36.716  11.744  51.041
27188W        W19112  35.704  30.243  50.594
27189W        W19113   6.768  31.220  52.878
27190W        W19114  11.262  36.219  50.162
27191W        W19115  26.229  43.192  50.164
27192W        W19116   1.754  15.729  52.879
27193W        W19117  44.177  16.236  52.861
27194W        W19118  33.233  37.698  50.163
27195W        W19119   2.294  41.694  52.888
27196W        W19120  28.221  18.755  50.123
27197W        W19121  47.700  45.691  51.984
27198W        W19122  35.200  17.739  52.414
27199W        W19123  23.722  33.220  49.668
27200W        W19124  13.234   7.741  52.436
27201W        W19125   6.749  18.230  53.326
27202W        W19126   2.782  19.239  51.040
27203W        W19127  41.713  12.742  53.810
27204W        W19128  17.739   6.752  51.956
27205W        W19129  26.245  28.707  50.586
27206W        W19130   7.778  23.722  50.613
27207W        W19131  34.702  12.758  53.810
27208W        W19132  45.688  35.217  50.136
27209W        W19133  27.732  28.247  49.697
27210W        W19134   6.268   3.270  53.804
27211W        W19135   7.253  38.693  51.953
27212W        W19136  15.248  33.711  49.690
27213W        W19137  22.759  22.249  51.037
27214W        W19138  18.733  27.252  53.336
27215W        W19139   1.277  13.238  52.448
27216W        W19140   1.272  47.220  53.321
27217W        W19141  22.759  37.726  51.949
27218W        W19142  17.269  18.767  49.673
27219W        W19143  18.733  37.198  50.590
27220W        W19144  37.199  27.217  50.155
27221W        W19145  37.712  48.174  49.705
27222W        W19146  43.700  37.690  51.494
27223W        W19147  41.185   9.779  50.597
27224W        W19148  36.700  15.763  52.889
27225W        W19149  15.726   2.247  50.620
27226W        W19150  37.225  12.743  52.862
27227W        W19151  26.218   8.781  52.409
27228W        W19152  19.238  25.238  50.156
27229W        W19153   0.296  30.703  50.156
27230W        W19154  27.250  30.738  51.049
27231W        W19155  48.189  48.175  53.782
27232W        W19156  18.269  17.248  51.952
27233W        W19157  13.741  12.244  51.973
27234W        W19158  21.263  17.223  50.152
27235W        W19159  28.221   2.288  51.949
27236W        W19160  24.758  22.753  51.976
27237W        W19161  18.267  25.717  52.883
27238W        W19162  17.226  11.731  53.813
27239W        W19163  17.261  28.245  50.598
27240W        W19164  46.176  28.747  50.606
27241W        W19165  26.207   6.771  51.501
27242W        W19166   7.272  36.739  52.428
27243W        W19167  26.740  19.759  50.578
27244W        W19168  13.254  33.711  51.507
27245W        W19169  15.725  28.238  53.351
27246W        W19170  18.728  10.758  52.880
27247W        W19171   9.268   2.795  51.043
27248W        W19172  23.242  48.181  52.896
27249W        W19173  22.717  34.243  51.060
27250W        W19174  46.712  15.227  49.699
27251W        W19175  32.729   5.267  53.799
27252W        W19176  32.233  10.780  49.693
27253W        W19177   5.780  17.230  50.607
27254W        W19178  22.257  44.224  52.405
27255W        W19179  18.238  33.238  50.141
27256W        W19180  11.748   0.756  51.034
27257W        W19181  20.735   4.788  51.530
27258W        W19182  27.753  13.762  50.134
27259W        W19183  42.683  44.691  52.420
27260W        W19184  26.207  19.266  53.796
27261W        W19185  30.705  28.713  52.421
27262W        W19186  38.209  34.226  51.490
27263W        W19187  21.730  39.214  51.956
27264W        W19188  10.272  27.717  50.599
27265W        W19189  44.218  40.207  53.796
27266W        W19190  29.215  11.735  52.421
27267W        W19191  38.209  32.246  53.325
27268W        W19192  38.701   0.266  50.157
27269W        W19193  26.719  19.234  49.671
27270W        W19194  42.187  13.270  50.121
27271W        W19195  40.691   4.259  50.128
27272W        W19196   8.264  20.224  51.519
27273W        W19197   3.777  43.718  51.984
27274W        W19198   0.267  18.725  49.697
27275W        W19199  24.212  19.728  53.787
27276W        W19200  19.743  39.716  51.969
27277W        W19201  45.711   2.250  50.589
27278W        W19202   9.248   7.778  51.052
27279W        W19203   4.274  24.214  51.038
27280W        W19204   7.264  39.699  53.322
27281W        W19205  23.736  11.774  50.124
27282W        W19206  39.232  44.711  49.678
27283W        W19207  31.199  15.263  51.493
27284W        W19208  45.688  47.177  51.988
27285W        W19209  44.684  38.695  51.963
27286W        W19210   7.257  33.233  51.950
27287W        W19211   0.754   7.284  53.790
27288W        W19212  25.750  42.689  53.801
27289W        W19213  10.761  44.684  52.416
27290W        W19214  12.262  22.228  50.613
27291W        W19215  35.725   0.264  51.525
27292W        W19216   0.750   9.769  50.156
27293W        W19217  47.689  30.722  53.333
27294W        W19218  47.184  14.761  53.343
27295W        W19219  43.699  42.187  50.154
27296W        W19220  14.269  12.265  51.982
27297W        W19221  41.706  33.200  52.886
27298W        W19222  37.691  38.690  52.427
27299W        W19223  10.261  36.214  49.709
27300W        W19224  24.729   6.285  51.075
27301W        W19225  20.727  40.709  52.874
27302W        W19226  23.714   9.761  50.587
27303W        W19227  36.194  30.710  49.676
27304W        W19228  32.698  42.200  53.800
27305W        W19229  30.241  13.230  52.881
27306W        W19230  35.695   8.254  52.437
27307W        W19231  32.236   2.272  49.666
27308W        W19232  24.750  28.212  53.350
27309W        W19233  14.745  33.716  51.034
27310W        W19234  43.192  23.216  52.898
27311W        W19235  46.722  14.239  50.122
27312W        W19236  15.749  23.228  50.128
27313W        W19237  33.236  43.680  51.057
27314W        W19238  33.695  37.215  53.776
27315W        W19239  32.721  37.736  52.890
27316W        W19240  42.230  27.730  53.337
27317W        W19241  42.184  12.243  49.681
27318W        W19242  36.190  45.711  53.352
27319W        W19243  15.736  16.260  51.041
27320W        W19244  43.724   1.284  51.991
27321W        W19245  26.232  17.271  51.069
27322W        W19246  44.206  27.705  52.438
27323W        W19247  19.744  10.750  53.353
27324W        W19248   8.284   8.259  50.166
27325W        W19249  11.755  45.194  51.053
27326W        W19250  18.267  38.210  50.606
27327W        W19251   1.254   7.740  50.620
27328W        W19252  27.255   2.786  52.862
27329W        W19253   1.786   7.750  49.687
27330W        W19254  13.240   6.256  50.160
27331W        W19255  27.719   8.248  51.989
27332W        W19256  42.680  30.204  50.621
27333W        W19257  47.186  22.221  51.525
27334W        W19258  11.739   1.775  50.609
27335W        W19259  27.706  16.234  50.591
27336W        W19260  25.239  32.705  50.613
27337W        W19261  44.690   1.250  50.140
27338W        W19262  21.225  20.725  51.512
27339W        W19263  19.752   6.758  51.064
27340W        W19264  12.775  17.728  51.046
27341W        W19265  20.741   2.288  52.863
27342W        W19266  32.718  14.748  53.815
27343W        W19267   8.779  15.242  52.439
27344W        W19268  24.212  18.743  50.617
27345W        W19269   1.748  21.726  50.134
27346W        W19270   6.287  34.705  49.680
27347W        W19271  23.241  24.246  50.588
27348W        W19272  17.754   8.739  51.949
27349W        W19273   3.769  32.733  51.075
27350W        W19274  25.738  30.728  51.050
27351W        W19275   6.783  34.197  53.349
27352W        W19276  35.227  19.220  52.884
27353W        W19277   0.280  30.243  50.594
27354W        W19278   6.785  37.699  52.442
27355W        W19279  10.253  27.224  51.491
27356W        W19280  46.189  37.726  51.076
27357W        W19281  37.236  26.221  51.495
27358W        W19282  26.246  29.727  53.357
27359W        W19283  35.210   3.774  50.155
27360W        W19284  24.227  12.245  53.346
27361W        W19285  17.262   3.786  51.506
27362W        W19286  31.704  20.219  52.408
27363W        W19287  12.737  32.708  53.778
27364W        W19288  29.743  36.726  53.356
27365W        W19289  21.251  39.195  51.069
27366W        W19290  23.720  23.722  53.351
27367W        W19291  41.683  11.248  51.491
27368W        W19292   7.782   1.266  53.811
27369W        W19293   4.249   2.765  50.140
27370W        W19294  33.734  19.756  51.972
27371W        W19295  29.245   4.770  49.667
27372W        W19296  35.732   5.753  52.893
27373W        W19297  46.216   2.251  50.618
27374W        W19298   5.772   1.271  53.781
27375W        W19299  19.765  12.270  52.437
27376W        W19300  33.696  12.745  49.670
27377W        W19301  41.210  11.772  51.960
27378W        W19302   1.268   6.288  53.804
27379W        W19303  41.687  17.763  51.063
27380W        W19304   4.782  27.732  53.786
27381W        W19305  13.252   0.754  53.353
27382W        W19306  31.228   0.778  53.786
27383W        W19307  24.238  33.222  52.447
27384W        W19308  40.701  11.778  53.342
27385W        W19309  17.246  11.756  52.867
27386W        W19310  43.689  21.730  51.515
27387W        W19311  23.741  21.752  51.079
27388W        W19312  13.751   5.768  50.600
27389W        W19313  41.208   7.279  53.782
27390W        W19314  11.258  22.745  49.687
27391W        W19315  45.685   9.236  51.496
27392W        W19316  38.236  40.691  49.679
27393W        W19317   5.248  22.215  53.334
27394W        W19318  27.224  23.742  51.061
27395W        W19319  43.221  37.189  53.815
27396W        W19320  11.756   1.263  53.328
27397W        W19321   1.249  36.719  52.896
27398W        W19322   0.284  40.220  53.320
27399W        W19323  29.219  40.201  50.591
27400W        W19324  23.222  29.204  51.949
27401W        W19325  26.255  34.712  53.340
27402W        W19326  29.744  18.240  50.137
27403W        W19327  25.216  30.715  50.128
27404W        W19328  13.237  12.768  52.445
27405W        W19329  29.243  14.760  51.071
27406W        W19330  29.207  47.198  51.520
27407W        W19331  27.237  45.721  49.687
27408W        W19332  13.758  38.220  50.616
27409W        W19333  26.723  37.728  49.669
27410W        W19334   2.767  36.716  50.138
27411W        W19335  37.194  44.705  51.053
27412W        W19336  33.735  40.201  51.053
27413W        W19337  24.713  26.750  51.968
27414W        W19338   6.241  45.190  53.805
27415W        W19339  15.768  14.753  51.956
27416W        W19340  13.742  23.744  51.041
27417W        W19341  42.718   2.765  49.700
27418W        W19342   6.269  19.764  51.951
27419W        W19343  48.202  21.719  49.693
27420W        W19344  11.247  19.240  53.325
27421W        W19345  37.224  46.186  52.405
27422W        W19346  33.202  15.230  53.329
27423W        W19347  39.704   0.787  52.898
27424W        W19348   1.249   6.257  52.885
27425W        W19349  12.734  34.241  51.044
27426W        W19350  47.705  25.756  52.443
27427W        W19351  24.220  14.755  49.702
27428W        W19352  22.740  23.716  53.800
27429W        W19353  25.709  29.720  51.534
27430W        W19354  17.731  27.705  50.142
27431W        W19355  28.715   9.758  52.886
27432W        W19356  44.722  38.700  51.037
27433W        W19357  19.756  31.743  51.983
27434W        W19358  41.205   2.265  50.597
27435W        W19359  38.734  47.207  51.985
27436W        W19360  14.730  32.736  49.695
27437W        W19361  33.229   1.759  52.431
27438W        W19362  37.712  18.765  51.066
27439W        W19363  39.734  41.694  51.961
27440W        W19364  38.191  24.724  50.125
27441W        W19365  24.745  20.746  50.594
27442W        W19366  31.708  22.750  52.884
27443W        W19367  38.195  23.723  50.584
27444W        W19368  34.704  25.226  49.677
27445W        W19369  12.757  35.731  51.070
27446W        W19370  31.244  46.676  52.880
27447W        W19371  44.684  27.752  53.320
27448W        W19372  11.773  37.207  52.875
27449W        W19373  46.690  45.211  51.989
27450W        W19374  17.235  43.719  52.415
27451W        W19375  22.246  23.251  53.803
27452W        W19376  38.729  44.226  49.696
27453W        W19377   2.791   8.780  52.876
27454W        W19378  36.734  47.697  53.338
27455W        W19379  23.723   9.252  50.145
27456W        W19380  20.759  40.216  52.405
27457W        W19381  26.244   9.277  52.436
27458W        W19382   7.268  23.241  52.897
27459W        W19383  47.675  35.710  51.035
27460W        W19384  19.744  19.239  51.991
27461W        W19385   3.778  33.733  53.808
27462W        W19386  38.720  10.277  53.790
27463W        W19387  23.229  27.253  50.621
27464W        W19388  33.205  14.253  52.424
27465W        W19389  12.256  30.236  51.517
27466W        W19390  47.188  15.764  53.785
27467W        W19391  48.218  28.729  49.687
27468W        W19392   1.783  39.216  52.445
27469W        W19393  30.233  46.219  53.346
27470W        W19394  32.230  39.713  50.147
27471W        W19395  41.230  39.202  52.862
27472W        W19396  33.244   5.270  51.986
27473W        W19397   3.294   6.784  52.872
27474W        W19398  42.704   8.267  51.074
27475W        W19399  28.208  25.713  52.865
27476W        W19400  26.253   9.765  51.051
27477W        W19401  28.714  19.743  52.869
27478W        W19402  35.221  31.226  50.147
27479W        W19403  30.717  46.704  53.816
27480W        W19404   9.239   6.752  52.415
27481W        W19405  30.248  46.719  53.799
27482W        W19406  22.234  26.749  50.598
27483W        W19407  46.723   8.748  49.694
27484W        W19408  36.231  41.721  53.787
27485W        W19409   2.254  26.237  49.679
27486W        W19410  43.203  44.180  51.987
27487W        W19411  22.241   9.243  51.947
27488W        W19412  38.205  38.223  51.960
27489W        W19413   0.750  37.206  51.523
27490W        W19414  15.764  36.702  51.948
27491W        W19415  30.202  37.232  51.046
27492W        W19416  19.247  21.224  52.439
27493W        W19417  12.255  30.734  50.165
27494W        W19418  15.233   4.770  52.878
27495W        W19419  33.701  26.712  50.149
27496W        W19420  35.195  26.749  52.421
27497W        W19421  47.209  32.207  49.672
27498W        W19422  18.757  29.744  51.052
27499W        W19423  28.731  44.202  51.513
27500W        W19424  19.257  44.222  50.148
27501W        W19425   0.255  39.215  52.440
27502W        W19426  17.235  19.234  49.672
27503W        W19427  42.706  40.689  52.426
27504W        W19428  33.707  40.697  50.589
27505W        W19429   2.296  39.203  53.781
27506W        W19430  47.707  29.245  53.806
27507W        W19431  28.245  41.725  50.595
27508W        W19432  46.702  40.728  51.954
27509W        W19433  15.735  19.230  51.494
27510W        W19434  16.254  18.765  51.968
27511W        W19435  19.753  40.197  52.428
27512W        W19436  35.208   6.250  49.674
27513W        W19437  41.185  15.256  52.412
27514W        W19438  44.201  36.725  51.971
27515W        W19439  32.226  36.228  53.331
27516W        W19440  10.235  35.194  53.333
27517W        W19441  42.211  47.714  50.612
27518W        W19442  47.204  20.245  49.690
27519W        W19443  21.733  31.733  51.499
27520W        W19444  32.216  31.247  51.535
27521W        W19445  40.724  19.738  52.429
27522W        W19446  31.743  17.749  52.434
27523W        W19447  16.768  33.716  50.579
27524W        W19448  36.215  45.704  50.599
27525W        W19449  45.682   0.273  51.507
27526W        W19450   4.263  23.740  53.358
27527W        W19451  21.725  31.237  53.798
27528W        W19452  20.258   7.752  49.670
27529W        W19453  12.244  42.193  53.800
27530W        W19454  12.756  21.719  51.529
27531W        W19455  38.711  30.217  51.984
27532W        W19456  19.733  46.196  52.446
27533W        W19457  16.725  40.185  50.135
27534W        W19458  29.737  21.736  51.074
27535W        W19459  24.757  36.704  51.966
27536W        W19460   5.264  45.681  52.415
27537W        W19461   4.290  43.717  49.683
27538W        W19462  13.774   6.272  53.814
27539W        W19463   4.266  10.263  52.889
27540W        W19464  14.230   6.756  53.801
27541W        W19465  38.688  43.719  51.972
27542W        W19466  41.727  47.220  50.603
27543W        W19467   8.773  40.717  52.890
27544W        W19468  21.265  14.737  51.039
27545W        W19469  48.215  21.738  51.529
27546W        W19470  29.733   3.247  53.330
27547W        W19471  32.225  18.245  53.345
27548W        W19472  14.273   2.784  50.582
27549W        W19473  40.717  42.224  51.509
27550W        W19474   3.792  43.713  50.592
27551W        W19475  14.760  18.719  52.889
27552W        W19476  31.745  41.185  52.404
27553W        W19477  35.223   7.282  51.057
27554W        W19478  25.739  44.194  53.337
27555W        W19479  40.709   1.789  50.586
27556W        W19480  28.236   9.235  50.151
27557W        W19481  24.755  24.759  52.871
27558W        W19482   8.286  39.235  49.707
27559W        W19483   1.252  23.237  51.963
27560W        W19484  40.701   4.284  53.332
27561W        W19485  29.225  28.217  50.131
27562W        W19486  18.230  35.194  53.808
27563W        W19487   8.281   3.256  50.596
27564W        W19488  43.195  37.688  52.868
27565W        W19489   9.239  28.715  51.967
27566W        W19490  41.222  32.201  49.682
27567W        W19491  20.253  44.209  53.778
27568W        W19492  31.211   5.276  51.972
27569W        W19493  28.247   6.243  53.332
27570W        W19494  16.233  36.733  52.425
27571W        W19495  32.698   8.272  53.328
27572W        W19496   0.262  16.742  51.078
27573W        W19497   3.262  22.756  51.954
27574W        W19498  45.205   1.265  53.776
27575W        W19499   8.785   9.238  50.157
27576W        W19500  19.221  34.195  53.814
27577W        W19501  36.204  38.703  51.519
27578W        W19502  46.698  26.745  51.495
27579W        W19503   9.272  42.198  51.991
27580W        W19504   7.750  18.726  50.579
27581W        W19505  16.754  16.243  52.895
27582W        W19506  43.684  31.728  49.680
27583W        W19507  42.686  20.758  50.592
27584W        W19508  21.263  29.728  49.688
27585W        W19509  15.725   0.252  53.338
27586W        W19510  12.761  24.722  51.525
27587W        W19511  23.742   2.267  51.507
27588W        W19512  29.750   8.280  51.965
27589W        W19513  23.217  38.700  52.881
27590W        W19514  36.717  12.760  53.778
27591W        W19515  17.753  23.750  51.069
27592W        W19516  28.738  35.718  52.875
27593W        W19517  46.677  26.755  52.447
27594W        W19518  46.220  15.744  50.604
27595W        W19519  47.694  14.235  49.690
27596W        W19520  40.230  36.707  51.498
27597W        W19521  37.721   1.253  53.802
27598W        W19522  20.242   2.761  52.414
27599W        W19523  32.223  23.752  50.587
27600W        W19524   5.268  18.764  53.786
27601W        W19525  36.205   4.255  50.153
27602W        W19526  26.724  22.224  52.900
27603W        W19527  28.719  24.758  49.700
27604W        W19528  41.231  36.698  53.323
27605W        W19529   3.762  43.693  53.358
27606W        W19530  15.271  23.722  50.136
27607W        W19531  31.235  31.227  51.518
27608W        W19532   8.255  10.775  51.072
27609W        W19533  15.239  13.229  52.428
27610W        W19534  32.239  41.690  50.588
27611W        W19535  34.196   5.765  49.681
27612W        W19536  36.731   5.262  50.154
27613W        W19537  30.230  16.723  51.967
27614W        W19538  28.726  10.777  52.427
27615W        W19539  46.680   5.265  53.343
27616W        W19540  25.743  37.709  52.403
27617W        W19541   7.239  37.198  53.810
27618W        W19542  36.209  44.178  49.699
27619W        W19543  34.713   3.268  51.975
27620W        W19544  42.729   7.782  50.610
27621W        W19545   8.765  12.769  53.791
27622W        W19546  22.232   9.253  49.705
27623W        W19547  16.733  17.754  50.135
27624W        W19548  12.236  19.233  50.153
27625W        W19549  23.719  43.195  52.884
27626W        W19550  16.251  21.257  53.334
27627W        W19551  41.184  16.757  52.895
27628W        W19552  42.219  26.753  52.882
27629W        W19553  11.771   7.275  51.497
27630W        W19554   1.279  40.227  50.152
27631W        W19555  14.750  24.233  52.886
27632W        W19556  33.196  43.691  52.898
27633W        W19557   3.744   3.254  52.427
27634W        W19558  14.731   5.253  49.704
27635W        W19559  29.740  38.694  50.606
27636W        W19560  10.751  21.764  51.951
27637W        W19561  14.273   3.254  53.331
27638W        W19562  38.225  40.191  51.972
27639W        W19563  34.236  38.721  50.592
27640W        W19564   6.253  35.222  53.789
27641W        W19565  29.709  17.752  52.404
27642W        W19566  31.708  45.679  51.496
27643W        W19567  46.176  34.197  52.896
27644W        W19568  12.767  28.731  52.430
27645W        W19569   8.284  48.211  51.071
27646W        W19570  46.179  45.711  51.499
27647W        W19571  31.207  18.255  51.979
27648W        W19572  35.226  45.188  53.318
27649W        W19573  34.216   4.249  51.948
27650W        W19574  30.749  37.692  50.578
27651W        W19575   1.782   3.288  51.061
27652W        W19576   0.284  18.756  52.440
27653W        W19577   3.787  20.240  52.416
27654W        W19578  24.719  14.774  53.322
27655W        W19579  34.199   3.755  50.165
27656W        W19580  43.215  35.216  51.055
27657W        W19581  24.741  43.700  51.533
27658W        W19582  21.723   3.284  53.811
27659W        W19583  16.751  12.248  51.960
27660W        W19584  36.733   9.262  53.791
27661W        W19585  27.213  14.769  53.773
27662W        W19586  41.199  34.219  52.900
27663W        W19587  36.237  32.718  53.317
27664W        W19588  20.737   2.748  53.335
27665W        W19589  17.229  46.208  51.079
27666W        W19590  22.258  19.749  50.622
27667W        W19591  39.724  48.187  50.611
27668W        W19592  40.699  37.714  51.506
27669W        W19593  10.253  19.728  51.502
27670W        W19594  26.732   1.754  51.951
27671W        W19595   2.247  44.697  51.967
27672W        W19596   2.255  32.201  53.357
27673W        W19597  27.206  28.711  51.519
27674W        W19598  23.736  43.714  50.598
27675W        W19599  29.240  43.723  51.513
27676W        W19600  39.235  30.209  52.894
27677W        W19601  22.754  15.753  53.329
27678W        W19602  21.750  42.201  51.057
27679W        W19603  45.702  47.181  53.346
27680W        W19604   2.266  20.742  50.597
27681W        W19605  45.677  26.227  53.784
27682W        W19606  45.181   7.280  50.133
27683W        W19607  32.707   9.275  51.494
27684W        W19608  22.752  27.726  49.674
27685W        W19609   9.251  30.741  50.611
27686W        W19610  42.196  35.228  52.436
27687W        W19611  26.233  45.187  50.603
27688W        W19612  18.228  25.239  53.320
27689W        W19613  47.720  35.729  49.691
27690W        W19614  12.757  43.206  51.060
27691W        W19615  47.700  44.217  49.671
27692W        W19616  45.712  12.746  51.036
27693W        W19617   8.268  27.212  52.870
27694W        W19618  29.722   0.297  50.135
27695W        W19619  15.226  40.708  50.160
27696W        W19620  11.277  46.222  50.622
27697W        W19621  33.220  40.199  53.318
27698W        W19622  42.693   2.758  51.529
27699W        W19623  46.205  14.276  51.990
27700W        W19624  37.212  32.199  50.615
27701W        W19625   5.289  21.739  51.079
27702W        W19626  37.699  26.751  51.493
27703W        W19627  31.705  42.197  53.318
27704W        W19628  34.715  18.252  51.071
27705W        W19629  29.235   0.790  49.687
27706W        W19630  39.211  14.237  50.586
27707W        W19631  21.744  36.190  51.953
27708W        W19632  27.252  40.205  49.689
27709W        W19633   8.283   4.778  52.404
27710W        W19634  34.241  31.704  51.503
27711W        W19635   9.779  18.721  51.982
27712W        W19636  14.771  12.277  51.063
27713W        W19637  36.728  22.733  53.342
27714W        W19638  28.234  11.251  50.127
27715W        W19639  15.750  32.240  53.806
27716W        W19640  22.263  14.251  52.448
27717W        W19641  32.234   4.253  52.889
27718W        W19642  36.721  42.726  51.528
27719W        W19643  40.200  17.253  50.583
27720W        W19644   5.263  33.741  50.159
27721W        W19645  31.229  20.228  51.949
27722W        W19646  45.694  21.746  52.425
27723W        W19647  27.718  25.217  51.500
27724W        W19648  46.177  27.731  53.332
27725W        W19649   9.765  20.747  53.782
27726W        W19650  40.194  41.717  52.902
27727W        W19651   3.777  42.223  51.048
27728W        W19652  13.752  26.706  50.146
27729W        W19653  15.742  40.214  51.051
27730W        W19654  45.691  47.202  51.075
27731W        W19655  18.758  39.703  51.965
27732W        W19656  41.703  34.695  52.901
27733W        W19657  14.733  16.256  53.332
27734W        W19658   3.251   6.787  51.070
27735W        W19659   7.253  31.718  52.887
27736W        W19660  10.237  33.738  52.448
27737W        W19661  23.249  19.243  51.512
27738W        W19662  36.699   6.756  53.817
27739W        W19663  30.708  16.238  50.615
27740W        W19664  23.260   3.257  53.341
27741W        W19665  12.230  17.267  53.774
27742W        W19666   8.253  41.687  53.807
27743W        W19667   4.268   4.277  51.046
27744W        W19668   5.283  13.278  51.492
27745W        W19669  44.214   9.737  52.420
27746W        W19670  44.202   1.282  49.682
27747W        W19671  25.725  41.218  49.681
27748W        W19672  34.700  11.270  50.601
27749W        W19673  38.723   0.283  53.331
27750W        W19674  27.227  22.215  51.952
27751W        W19675  12.233   3.746  51.984
27752W        W19676  21.233  22.240  52.869
27753W        W19677  33.239  41.210  49.667
27754W        W19678   9.765  28.738  53.808
27755W        W19679  37.709  29.241  53.318
27756W        W19680  12.254  26.221  50.578
27757W        W19681  23.736  27.208  52.888
27758W        W19682  24.727   6.746  51.079
27759W        W19683  22.716  17.737  50.142
27760W        W19684  12.279  26.250  51.503
27761W        W19685  23.250  27.219  51.491
27762W        W19686  43.216  11.260  50.616
27763W        W19687  10.240  30.734  50.146
27764W        W19688  27.710  22.236  50.124
27765W        W19689  32.201   0.784  50.588
27766W        W19690  42.709  30.237  51.516
27767W        W19691   4.262  23.261  50.588
27768W        W19692  25.248  12.770  51.527
27769W        W19693  10.770  34.721  51.499
27770W        W19694  46.715  32.205  50.586
27771W        W19695  34.210  31.231  52.422
27772W        W19696  33.237  37.233  51.525
27773W        W19697   5.276  22.243  52.415
27774W        W19698  46.696  37.236  52.433
27775W        W19699  32.200  24.226  53.359
27776W        W19700  15.260   9.782  51.071
27777W        W19701  30.713  48.218  50.158
27778W        W19702   6.756   7.760  52.859
27779W        W19703   1.755  38.717  52.887
27780W        W19704  24.253  48.200  52.871
27781W        W19705  36.209  14.753  53.772
27782W        W19706  29.230   5.777  51.528
27783W        W19707  28.214  20.724  50.145
27784W        W19708  22.746  35.737  53.809
27785W        W19709  25.749  37.194  52.887
27786W        W19710  28.213  23.217  49.685
27787W        W19711  24.723  33.225  50.607
27788W        W19712  26.254   7.277  53.329
27789W        W19713  24.256  15.747  50.619
27790W        W19714  25.232  33.222  49.676
27791W        W19715  34.196  13.737  51.525
27792W        W19716   0.279  13.773  50.605
27793W        W19717  21.744  47.698  53.815
27794W        W19718  33.710  36.193  51.068
27795W        W19719   4.289  31.705  50.609
27796W        W19720   5.250  10.759  50.587
27797W        W19721   6.784  42.193  49.694
27798W        W19722  33.710   4.786  50.604
27799W        W19723  17.267  15.729  49.694
27800W        W19724  38.229  19.719  51.062
27801W        W19725  33.236  17.234  51.524
27802W        W19726  14.230  12.759  53.775
27803W        W19727  46.712   6.253  50.611
27804W        W19728  14.239  46.718  52.881
27805W        W19729  40.710  21.251  52.443
27806W        W19730  34.698  40.693  51.056
27807W        W19731  35.215  20.740  51.991
27808W        W19732   7.762   9.273  51.984
27809W        W19733  17.745   9.735  50.618
27810W        W19734  28.239  35.733  52.901
27811W        W19735  47.710  38.193  49.664
27812W        W19736   5.267  25.252  50.587
27813W        W19737  23.241  35.223  49.682
27814W        W19738   1.757  38.218  52.900
27815W        W19739  40.217   3.268  51.061
27816W        W19740   1.258  10.269  49.688
27817W        W19741   9.239  23.712  51.965
27818W        W19742  36.732  25.228  51.070
27819W        W19743  12.237  18.257  53.359
27820W        W19744  19.737   4.271  53.317
27821W        W19745   1.783  22.238  52.879
27822W        W19746  12.732  33.239  49.669
27823W        W19747  33.219  36.724  50.143
27824W        W19748  42.184   8.784  53.811
27825W        W19749  45.219  13.234  50.588
27826W        W19750  21.247  40.232  52.860
27827W        W19751  16.242  15.740  51.535
27828W        W19752  31.723  10.268  50.165
27829W        W19753  13.766  23.224  50.144
27830W        W19754   7.263  30.708  50.140
27831W        W19755  32.729  15.269  52.415
27832W        W19756   7.272  28.245  51.533
27833W        W19757  23.727   7.767  51.970
27834W        W19758  20.760  10.742  51.505
27835W        W19759  27.732  22.250  49.707
27836W        W19760  37.732  41.217  51.989
27837W        W19761  41.717  28.220  52.404
27838W        W19762  45.200  38.724  51.067
27839W        W19763  13.267  46.676  52.447
27840W        W19764  10.243  36.693  50.606
27841W        W19765  43.213  32.237  49.694
27842W        W19766  22.214  10.257  50.593
27843W        W19767   4.263  15.231  51.058
27844W        W19768  32.702  12.241  53.784
27845W        W19769   9.760  38.708  51.984
27846W        W19770  35.210   3.264  51.077
27847W        W19771  28.214  30.733  50.603
27848W        W19772   9.758  34.203  51.494
27849W        W19773  15.740   6.278  50.138
27850W        W19774  37.219  34.239  51.514
27851W        W19775  40.718   9.255  51.507
27852W        W19776   5.789  27.724  51.520
27853W        W19777  41.211  19.731  51.522
27854W        W19778  21.232   3.777  50.607
27855W        W19779   7.744  18.729  50.131
27856W        W19780   3.748  44.182  50.127
27857W        W19781   0.288  12.251  50.591
27858W        W19782  29.713   3.264  53.788
27859W        W19783  43.679   4.782  52.440
27860W        W19784  10.267  24.722  50.161
27861W        W19785  22.242  27.252  52.433
27862W        W19786  47.698  28.223  50.147
27863W        W19787  29.722  25.227  51.981
27864W        W19788  11.256  28.726  53.344
27865W        W19789  30.706  35.217  52.429
27866W        W19790   2.272  35.203  50.611
27867W        W19791  34.195  24.243  52.901
27868W        W19792  19.731  32.228  50.585
27869W        W19793  32.721  26.714  50.593
27870W        W19794   8.736  34.705  50.596
27871W        W19795  48.191  47.696  51.042
27872W        W19796  33.719  26.730  52.885
27873W        W19797  25.736  16.260  50.157
27874W        W19798  14.762  40.201  52.887
27875W        W19799  46.676  35.240  53.813
27876W        W19800  10.242  45.204  50.125
27877W        W19801  44.201   2.769  52.410
27878W        W19802  39.194  27.213  49.691
27879W        W19803   1.794  31.720  50.611
27880W        W19804  22.259  26.211  51.960
27881W        W19805   9.734  28.252  53.802
27882W        W19806  13.247  36.206  51.049
27883W        W19807   0.782   3.277  50.165
27884W        W19808  41.191  12.266  51.078
27885W        W19809  24.245  27.754  53.803
27886W        W19810  40.713  43.682  51.952
27887W        W19811  41.712   7.741  51.065
27888W        W19812  31.228  41.688  50.592
27889W        W19813  19.246  35.726  51.985
27890W        W19814  23.228  35.704  51.513
27891W        W19815  46.220  19.767  50.599
27892W        W19816  21.227  26.209  51.047
27893W        W19817  31.699  31.705  51.953
27894W        W19818  38.224  14.742  49.696
27895W        W19819  18.723  25.729  51.505
27896W        W19820  38.232  28.704  53.790
27897W        W19821  43.216  22.734  52.418
27898W        W19822   1.273  48.178  50.617
27899W        W19823  47.219  34.719  50.613
27900W        W19824  21.745  43.704  52.443
27901W        W19825  10.243  33.727  53.354
27902W        W19826  32.735   8.257  51.064
27903W        W19827   7.743   3.290  52.411
27904W        W19828  41.724  40.201  53.324
27905W        W19829   7.267  30.728  53.791
27906W        W19830   8.777  33.214  53.335
27907W        W19831  34.220  31.246  50.616
27908W        W19832  33.213   2.271  53.326
27909W        W19833   1.775  14.732  51.076
27910W        W19834  35.737  14.737  52.412
27911W        W19835  21.235  12.742  53.799
27912W        W19836  29.716   7.743  52.439
27913W        W19837  21.230  44.185  49.670
27914W        W19838  40.195  44.193  52.870
27915W        W19839  36.713  14.271  52.441
27916W        W19840  31.703   6.778  52.876
27917W        W19841   1.264  45.706  50.614
27918W        W19842   3.787  12.274  51.516
27919W        W19843  40.219  41.712  50.161
27920W        W19844  33.719   3.292  52.861
27921W        W19845  38.233  28.221  51.043
27922W        W19846   5.243  44.207  53.354
27923W        W19847  14.250  42.723  49.703
27924W        W19848  31.229  21.757  50.581
27925W        W19849   3.746  10.266  52.875
27926W        W19850  30.203  18.257  50.606
27927W        W19851  20.225  16.743  53.320
27928W        W19852   9.739   1.794  49.671
27929W        W19853  19.258  10.759  52.432
27930W        W19854  44.187  10.237  51.070
27931W        W19855  23.245  20.252  53.816
27932W        W19856   3.782  41.203  53.805
27933W        W19857  21.733  24.238  51.514
27934W        W19858   1.790   2.787  53.353
27935W        W19859   5.785  11.243  49.665
27936W        W19860  48.188  14.739  50.600
27937W        W19861  20.759  16.760  51.508
27938W        W19862  27.746  23.244  50.590
27939W        W19863  18.221   1.787  49.686
27940W        W19864  38.715  28.238  51.960
27941W        W19865  41.700  37.714  50.594
27942W        W19866  33.702  17.768  51.969
27943W        W19867   2.771  32.726  53.337
27944W        W19868  23.732  24.243  50.615
27945W        W19869  31.204   9.747  51.968
27946W        W19870  32.215   7.787  52.410
27947W        W19871  28.206  42.214  50.589
27948W        W19872  18.729  20.232  52.440
27949W        W19873   5.245  23.246  53.338
27950W        W19874  31.236  21.738  52.436
27951W        W19875  42.729  25.748  53.795
27952W        W19876  30.238  43.701  52.446
27953W        W19877  26.213  41.718  51.965
27954W        W19878  12.730  41.717  51.513
27955W        W19879  30.735  32.245  50.155
27956W        W19880  20.762  36.706  53.350
27957W        W19881  14.234  38.717  50.596
27958W        W19882   8.279  43.190  49.693
27959W        W19883   3.778   5.280  51.509
27960W        W19884  39.728  21.226  50.154
27961W        W19885  36.199  45.721  52.890
27962W        W19886  10.779  14.259  51.981
27963W        W19887  26.257  18.743  49.695
27964W        W19888  13.258   9.282  52.859
27965W        W19889  43.714  32.207  52.883
27966W        W19890  25.730  30.730  50.584
27967W        W19891  46.188  48.172  51.518
27968W        W19892  46.685  44.223  52.420
27969W        W19893   4.761   8.244  52.868
27970W        W19894  39.221  33.230  51.951
27971W        W19895  17.738  10.766  51.509
27972W        W19896  12.263  14.232  51.074
27973W        W19897  37.213  29.212  53.803
27974W        W19898   2.768  42.702  53.338
27975W        W19899   4.244   1.297  52.870
27976W        W19900  47.192  15.755  51.962
27977W        W19901  45.721  44.724  51.973
27978W        W19902  33.700   0.275  51.516
27979W        W19903   0.270  11.255  52.882
27980W        W19904  17.742  38.197  50.607
27981W        W19905  26.714   2.775  51.508
27982W        W19906   2.783   1.751  49.682
27983W        W19907  43.218  34.726  51.975
27984W        W19908  28.733  28.732  51.510
27985W        W19909  28.740  47.194  53.330
27986W        W19910   0.749  44.691  51.061
27987W        W19911  19.230  39.711  51.512
27988W        W19912  13.749   1.785  49.702
27989W        W19913  34.696  17.730  50.578
27990W        W19914   3.773  26.720  49.674
27991W        W19915  14.229  16.231  51.952
27992W        W19916   5.746  18.252  50.584
27993W        W19917  23.731  37.206  50.589
27994W        W19918  31.216  27.744  50.145
27995W        W19919   4.275   7.747  51.041
27996W        W19920   5.287  20.264  53.796
27997W        W19921  12.268  42.205  49.679
27998W        W19922  44.699  33.221  52.867
27999W        W19923  12.746  39.228  51.974
28000W        W19924  14.243  18.753  50.127
28001W        W19925  14.738  36.214  51.498
28002W        W19926  23.215   3.791  51.986
28003W        W19927  29.734  11.763  51.952
28004W        W19928   9.760  17.265  50.138
28005W        W19929  36.216  23.760  49.666
28006W        W19930   3.764   0.261  50.622
28007W        W19931  33.226   5.283  53.797
28008W        W19932   4.277  39.201  50.128
28009W        W19933  47.201  36.236  50.146
28010W        W19934  20.762   5.770  51.965
28011W        W19935  14.258   0.266  50.619
28012W        W19936   3.256  42.696  50.580
28013W        W19937  43.708  40.717  49.705
28014W        W19938  13.759  30.737  52.412
28015W        W19939  18.252  10.743  51.531
28016W        W19940  36.707  45.213  52.414
28017W        W19941  14.238  18.230  52.428
28018W        W19942  47.186  34.701  52.860
28019W        W19943  17.260   2.255  49.667
28020W        W19944  32.724  35.192  51.511
28021W        W19945   2.779  21.257  51.527
28022W        W19946  35.241  25.251  49.691
28023W        W19947   0.263  26.251  49.686
28024W        W19948   4.761  27.718  49.677
28025W        W19949  20.733  36.195  53.773
28026W        W19950  11.247  44.696  51.981
28027W        W19951  26.240   2.767  51.509
28028W        W19952  22.245  25.755  49.685
28029W        W19953  13.241   9.241  51.954
28030W        W19954  40.197   9.235  50.605
28031W        W19955  19.747  17.723  52.410
28032W        W19956  44.220  30.240  50.606
28033W        W19957  16.763  19.238  49.683
28034W        W19958  35.222  32.705  51.986
28035W        W19959  31.223  26.742  53.784
28036W        W19960  29.204  35.725  51.504
28037W        W19961  41.717   2.272  53.778
28038W        W19962   3.278  36.201  52.448
28039W        W19963  32.737  28.736  50.137
28040W        W19964  21.727   8.263  50.148
28041W        W19965  42.695  37.204  50.602
28042W        W19966   3.270  15.233  53.345
28043W        W19967  17.271  41.698  51.038
28044W        W19968  42.682  38.707  51.048
28045W        W19969  17.769  34.227  51.499
28046W        W19970  17.738  25.727  53.772
28047W        W19971  27.744  36.207  53.345
28048W        W19972  23.752   8.768  50.144
28049W        W19973  20.238  20.223  52.415
28050W        W19974  45.206  36.211  50.154
28051W        W19975  22.225  21.720  51.077
28052W        W19976   6.750  10.762  49.683
28053W        W19977   8.237  37.232  53.781
28054W        W19978  19.735   1.751  53.330
28055W        W19979   7.775  27.711  51.502
28056W        W19980  39.209   7.256  53.320
28057W        W19981   6.742  42.208  53.325
28058W        W19982  19.239   1.781  51.509
28059W        W19983  29.729  46.695  50.154
28060W        W19984  20.238  34.212  50.601
28061W        W19985  40.186  27.727  50.154
28062W        W19986  31.209  40.213  51.531
28063W        W19987  42.687   4.259  53.346
28064W        W19988  17.726   7.278  52.441
28065W        W19989  47.712  11.247  51.076
28066W        W19990  12.779  13.739  49.687
28067W        W19991  28.243  43.726  52.863
28068W        W19992  40.703   6.756  53.330
28069W        W19993  27.206  32.205  50.129
28070W        W19994   2.287   3.264  53.786
28071W        W19995  28.251   7.242  51.036
28072W        W19996  19.226  24.222  49.702
28073W        W19997  48.171  34.225  53.360
28074W        W19998  10.780  34.733  53.325
28075W        W19999  41.184  13.231  53.809
28076W        W20000  28.242   0.257  51.505
28077W        W20001  17.223   6.261  52.898
28078W        W20002   4.746  23.215  53.355
28079W        W20003  23.712   3.753  51.959
28080W        W20004  15.251  25.241  52.420
28081W        W20005   4.288  27.254  53.361
28082W        W20006   2.783  22.729  49.692
28083W        W20007  27.741   5.256  51.982
28084W        W20008  31.723  32.221  51.048
28085W        W20009  45.685  16.238  53.326
28086W        W20010   1.750   9.273  50.165
28087W        W20011   5.773  31.227  51.987
28088W        W20012  30.243  40.695  50.136
28089W        W20013  22.215  39.186  52.411
28090W        W20014  35.694  14.275  51.970
28091W        W20015  10.274  31.206  51.500
28092W        W20016  31.235  44.701  51.518
28093W        W20017  24.256  11.770  53.316
28094W        W20018  37.205   1.261  49.701
28095W        W20019  12.264  46.198  50.588
28096W        W20020  20.249  33.217  50.148
28097W        W20021  24.245  42.223  53.775
28098W        W20022   2.256  28.239  53.361
28099W        W20023  23.224  32.705  50.621
28100W        W20024  19.746  47.719  51.041
28101W        W20025  29.238  35.222  52.863
28102W        W20026  45.677   9.241  50.135
28103W        W20027  23.227  39.709  51.075
28104W        W20028  29.744  10.269  50.588
28105W        W20029  32.237  10.767  53.323
28106W        W20030  17.743  18.241  51.497
28107W        W20031  44.178   0.299  50.605
28108W        W20032  39.725  10.734  53.791
28109W        W20033  26.224  10.747  52.869
28110W        W20034  38.200   2.294  53.357
28111W        W20035  41.707  31.208  50.600
28112W        W20036  32.203  48.171  51.035
28113W        W20037  39.224  47.179  53.342
28114W        W20038  47.202  38.729  53.787
28115W        W20039  42.204  15.773  53.352
28116W        W20040  42.203  21.264  52.861
28117W        W20041  45.709  24.712  50.613
28118W        W20042  41.203  18.760  53.802
28119W        W20043  10.736  29.206  49.671
28120W        W20044  32.215   0.280  52.887
28121W        W20045  46.698  40.728  51.073
28122W        W20046  46.678  43.720  50.133
28123W        W20047  13.767  19.228  51.956
28124W        W20048  19.724  22.719  51.495
28125W        W20049  36.212   4.784  51.524
28126W        W20050  13.256  17.266  51.963
28127W        W20051  14.752  24.230  49.706
28128W        W20052  17.242  21.264  50.580
28129W        W20053  12.762  44.226  51.972
28130W        W20054  41.684  11.254  52.436
28131W        W20055  20.240   3.281  53.786
28132W        W20056  41.226   4.773  50.164
28133W        W20057  46.189  27.729  51.947
28134W        W20058   5.760  33.728  52.897
28135W        W20059  43.201  19.754  49.687
28136W        W20060  19.734   7.758  50.133
28137W        W20061  28.215  41.203  53.360
28138W        W20062  32.736  41.217  50.162
28139W        W20063  10.759   2.792  52.893
28140W        W20064  21.741  30.728  50.597
28141W        W20065  13.255  14.264  51.075
28142W        W20066  12.279  17.245  50.612
28143W        W20067  19.268  23.232  51.950
28144W        W20068  33.206   3.781  49.697
28145W        W20069  11.247  24.733  53.328
28146W        W20070  32.198  20.238  51.955
28147W        W20071  13.750   2.746  53.779
28148W        W20072  24.244  26.240  50.140
28149W        W20073  21.258  44.694  51.531
28150W        W20074  20.253  21.759  50.602
28151W        W20075  40.719  35.725  53.343
28152W        W20076  48.206  27.253  51.503
28153W        W20077  19.738  17.270  51.497
28154W        W20078  26.745  13.730  53.793
28155W        W20079  14.774  34.214  50.138
28156W        W20080  25.716  14.756  53.800
28157W        W20081  15.750  10.768  50.141
28158W        W20082  15.260  15.757  50.136
28159W        W20083  37.720  30.730  51.989
28160W        W20084  12.243  33.732  52.886
28161W        W20085  45.186  29.749  51.052
28162W        W20086  28.709   1.750  52.882
28163W        W20087  11.732  11.758  52.895
28164W        W20088   3.276   4.748  53.806
28165W        W20089  18.244   9.261  50.142
28166W        W20090   9.759  12.767  49.684
28167W        W20091  21.721  41.687  50.596
28168W        W20092   5.261  26.739  50.616
28169W        W20093  25.214   0.786  53.810
28170W        W20094   8.279   3.770  51.962
28171W        W20095  44.692   4.249  51.970
28172W        W20096  28.717  41.688  50.155
28173W        W20097  38.216  13.257  50.165
28174W        W20098  16.756  37.703  53.331
28175W        W20099  45.702  48.186  51.953
28176W        W20100  33.724  31.710  51.528
28177W        W20101  19.225  18.253  52.422
28178W        W20102  41.215   6.252  51.039
28179W        W20103  16.272  15.263  52.867
28180W        W20104  42.687  13.740  53.809
28181W        W20105  17.752  28.748  51.524
28182W        W20106  38.235  23.235  53.804
28183W        W20107   5.251  46.676  52.897
28184W        W20108  39.697  23.746  49.696
28185W        W20109   5.744  24.257  50.157
28186W        W20110  14.772  20.724  52.869
28187W        W20111  28.752  46.213  49.702
28188W        W20112  28.745  37.197  52.413
28189W        W20113  17.763  12.741  51.502
28190W        W20114  20.739   4.259  53.354
28191W        W20115  42.702  16.231  52.895
28192W        W20116  36.721  29.725  49.668
28193W        W20117  20.739  38.194  53.815
28194W        W20118  42.216  32.219  51.950
28195W        W20119  31.741  43.203  51.523
28196W        W20120  46.704  16.736  50.135
28197W        W20121  29.718   6.776  51.051
28198W        W20122   2.793  31.745  53.779
28199W        W20123   2.759  20.749  51.517
28200W        W20124   9.744   0.794  52.902
28201W        W20125   4.789  45.685  51.067
28202W        W20126  10.253  41.727  51.042
28203W        W20127  46.686  40.224  52.866
28204W        W20128  46.708   1.264  52.412
28205W        W20129  26.746  23.752  51.514
28206W        W20130   7.748  26.219  51.510
28207W        W20131  10.269  41.700  49.709
28208W        W20132  23.227  30.703  53.808
28209W        W20133  41.195  42.726  53.786
28210W        W20134  27.729  47.198  50.614
28211W        W20135  41.729   7.243  52.425
28212W        W20136  31.229  31.201  52.885
28213W        W20137  17.226  38.197  53.779
28214W        W20138  29.705  46.687  49.683
28215W        W20139  21.250   5.250  51.959
28216W        W20140   8.775  14.727  52.440
28217W        W20141  15.257  21.725  50.603
28218W        W20142  43.191  10.246  52.435
28219W        W20143  31.699  14.271  51.992
28220W        W20144  24.753  22.727  50.125
28221W        W20145  24.756  44.706  49.664
28222W        W20146  10.252  46.184  51.075
28223W        W20147  10.273  45.693  52.882
28224W        W20148  13.270  25.733  52.864
28225W        W20149  44.689  27.237  51.040
28226W        W20150   8.243   9.746  49.694
28227W        W20151   7.266  15.770  53.325
28228W        W20152   5.762   3.760  53.813
28229W        W20153  34.215  40.216  53.360
28230W        W20154  36.708  32.712  50.583
28231W        W20155  38.697  14.254  53.778
28232W        W20156  32.202  34.201  50.619
28233W        W20157  11.266  42.703  51.986
28234W        W20158  32.230  23.750  52.869
28235W        W20159  41.715  32.730  50.165
28236W        W20160  13.233  38.201  53.345
28237W        W20161  15.236  31.242  51.493
28238W        W20162  41.722   3.793  49.705
28239W        W20163  42.186   8.246  52.436
28240W        W20164   2.271  46.199  50.618
28241W        W20165  10.269  43.679  53.317
28242W        W20166  45.684  46.183  50.136
28243W        W20167   5.282  11.238  49.682
28244W        W20168  29.706  12.765  51.064
28245W        W20169  42.230  33.245  53.776
28246W        W20170   5.762  22.752  50.132
28247W        W20171  37.715  45.182  50.139
28248W        W20172  24.213  20.730  53.783
28249W        W20173  21.245  17.268  52.862
28250W        W20174  35.221   6.739  53.785
28251W        W20175  44.697  10.237  52.440
28252W        W20176  33.714  23.744  50.121
28253W        W20177   1.295  19.251  50.150
28254W        W20178  21.234  27.255  51.517
28255W        W20179  22.748  13.230  49.672
28256W        W20180  10.733  17.721  50.151
28257W        W20181  24.251  13.762  51.501
28258W        W20182  24.219   0.256  51.049
28259W        W20183  46.720  28.240  51.064
28260W        W20184   8.774  35.233  53.343
28261W        W20185  25.725  11.252  53.350
28262W        W20186  23.759   9.264  51.491
28263W        W20187   7.776   1.780  51.974
28264W        W20188  46.673   4.290  51.970
28265W        W20189  29.208  27.254  53.351
28266W        W20190  30.701   7.759  51.047
28267W        W20191  11.774  26.751  50.598
28268W        W20192   1.255  32.235  50.594
28269W        W20193  13.239  18.733  51.948
28270W        W20194  44.683  33.728  51.503
28271W        W20195  25.214  24.711  53.360
28272W        W20196   8.761  10.737  50.129
28273W        W20197   9.250  39.210  50.592
28274W        W20198  37.227   5.772  49.671
28275W        W20199  29.744  44.188  50.140
28276W        W20200  16.269  17.725  50.147
28277W        W20201   8.286  22.231  50.589
28278W        W20202  43.198  23.219  49.688
28279W        W20203  30.226  42.199  51.520
28280W        W20204  44.690  22.759  49.676
28281W        W20205  46.710   5.265  51.053
28282W        W20206  21.231  36.231  52.877
28283W        W20207  46.682  33.197  51.959
28284W        W20208   6.772  26.226  51.992
28285W        W20209  21.750  36.223  52.431
28286W        W20210  14.260  41.205  52.410
28287W        W20211  14.754  34.209  52.413
28288W        W20212   8.255   6.252  51.071
28289W        W20213  38.187  27.745  53.798
28290W        W20214  22.217  34.711  52.427
28291W        W20215   0.793  41.195  51.961
28292W        W20216   1.294  15.762  51.079
28293W        W20217  37.709  19.731  53.329
28294W        W20218   7.254   6.788  52.863
28295W        W20219  32.708  44.213  50.154
28296W        W20220  36.204  12.269  50.610
28297W        W20221  34.223  30.701  51.059
28298W        W20222  47.192  42.219  51.516
28299W        W20223  36.705  36.230  51.521
28300W        W20224  13.753   5.248  53.354
28301W        W20225  14.263  33.733  51.982
28302W        W20226  20.739  36.200  51.982
28303W        W20227  23.743  23.756  52.883
28304W        W20228  38.715  41.701  53.786
28305W        W20229  23.244  21.747  53.816
28306W        W20230  26.743  26.708  49.678
28307W        W20231  39.712  17.745  52.869
28308W        W20232  35.230  31.214  50.610
28309W        W20233  32.728  43.727  50.166
28310W        W20234  46.190  45.177  49.677
28311W        W20235  47.196  36.709  51.960
28312W        W20236  16.267  18.760  49.698
28313W        W20237   3.755  44.189  52.444
28314W        W20238  28.717  10.774  51.985
28315W        W20239  42.718  20.221  52.432
28316W        W20240  37.725  36.205  53.345
28317W        W20241  30.708   4.758  52.420
28318W        W20242   8.274  19.255  52.406
28319W        W20243  35.729  32.207  51.985
28320W        W20244  38.696  18.253  53.347
28321W        W20245  40.718  45.187  50.128
28322W        W20246  22.251  12.276  49.671
28323W        W20247   7.275  42.225  50.595
28324W        W20248  25.225  41.213  51.496
28325W        W20249   7.246  12.239  49.691
28326W        W20250  34.197  45.688  51.969
28327W        W20251   0.274  37.724  51.055
28328W        W20252  40.224  34.219  53.811
28329W        W20253   8.268   6.279  51.959
28330W        W20254  32.205  26.724  51.976
28331W        W20255  11.244   6.752  53.791
28332W        W20256  44.209  24.229  50.592
28333W        W20257  35.728  27.236  53.803
28334W        W20258  15.240  22.761  50.616
28335W        W20259  22.234  42.196  51.055
28336W        W20260  42.219  43.704  49.709
28337W        W20261  26.242  28.239  51.966
28338W        W20262  46.203  25.238  51.534
28339W        W20263   2.261  21.241  51.055
28340W        W20264  35.208   0.292  51.063
28341W        W20265  42.705  13.262  52.861
28342W        W20266  23.225  43.681  53.348
28343W        W20267  46.697  40.207  52.446
28344W        W20268  16.738   5.256  50.608
28345W        W20269  10.748  21.735  50.164
28346W        W20270   4.285  46.203  53.792
28347W        W20271  19.230   9.279  51.492
28348W        W20272  45.199  44.713  53.358
28349W        W20273  26.221  36.199  53.319
28350W        W20274  17.728  30.710  53.316
28351W        W20275  19.729  31.200  52.439
28352W        W20276  16.245  30.215  51.982
28353W        W20277  47.715   9.271  50.585
28354W        W20278  32.243  30.739  53.792
28355W        W20279  47.214  28.725  53.781
28356W        W20280  47.197   8.272  51.520
28357W        W20281  41.208  27.249  51.067
28358W        W20282  40.709  31.232  52.430
28359W        W20283  20.731  29.217  53.811
28360W        W20284  32.739   1.253  53.779
28361W        W20285  18.263  13.231  51.491
28362W        W20286   4.260   8.243  50.612
28363W        W20287  23.735  29.714  50.163
28364W        W20288  15.242   5.785  50.154
28365W        W20289  35.211  24.251  51.527
28366W        W20290  25.745  10.749  50.592
28367W        W20291   2.777   0.787  51.947
28368W        W20292  27.744  37.696  51.948
28369W        W20293  12.734  25.741  51.070
28370W        W20294  47.191  33.205  52.436
28371W        W20295  18.768  42.686  53.787
28372W        W20296  45.176  10.745  49.686
28373W        W20297  41.194  44.212  53.790
28374W        W20298  22.737  25.220  51.962
28375W        W20299  37.735  21.222  50.591
28376W        W20300  23.726  45.692  53.329
28377W        W20301  31.729  34.699  52.892
28378W        W20302  21.746  25.236  50.620
28379W        W20303  43.193  43.722  53.783
28380W        W20304  22.225  15.241  49.701
28381W        W20305  32.236  46.710  52.893
28382W        W20306  23.247  34.218  52.891
28383W        W20307   8.246  10.269  50.607
28384W        W20308  43.225  45.720  51.978
28385W        W20309  37.736  48.191  51.496
28386W        W20310  25.255  39.732  51.047
28387W        W20311   4.268  28.242  50.592
28388W        W20312  40.233  47.204  53.316
28389W        W20313  45.178  19.252  53.336
28390W        W20314   8.777  30.243  51.072
28391W        W20315  15.755  18.254  51.505
28392W        W20316  24.744  25.236  53.334
28393W        W20317  10.766  17.255  50.597
28394W        W20318  46.722  24.217  51.952
28395W        W20319  10.763  13.729  50.586
28396W        W20320  19.262   7.275  52.904
28397W        W20321  18.723  37.725  50.145
28398W        W20322  40.222  45.695  53.774
28399W        W20323  37.194  14.269  52.870
28400W        W20324   0.251  10.277  51.507
28401W        W20325  47.688   5.289  51.969
28402W        W20326  16.272  11.740  52.442
28403W        W20327  17.744  36.199  51.493
28404W        W20328  21.233  48.205  49.700
28405W        W20329  14.235  43.185  51.062
28406W        W20330  46.188  41.230  52.432
28407W        W20331  39.205  17.754  49.677
28408W        W20332  36.694  32.203  52.417
28409W        W20333  38.699  41.698  52.415
28410W        W20334  24.221  23.228  52.428
28411W        W20335  45.212  11.265  51.068
28412W        W20336  21.259  15.746  52.424
28413W        W20337  36.218  19.722  53.782
28414W        W20338  47.689  38.709  53.797
28415W        W20339  28.223  10.765  52.415
28416W        W20340  40.729  46.679  50.132
28417W        W20341  44.220  16.732  51.972
28418W        W20342  45.220  10.750  53.815
28419W        W20343  39.221  32.212  53.814
28420W        W20344  17.731   9.764  51.959
28421W        W20345   3.754  22.251  49.677
28422W        W20346  23.226  30.221  51.037
28423W        W20347   1.288  48.183  52.886
28424W        W20348   6.785  34.741  49.696
28425W        W20349  10.750  47.719  50.615
28426W        W20350   0.772  47.193  50.136
28427W        W20351   6.758  25.724  50.578
28428W        W20352   0.273   3.757  51.957
28429W        W20353  17.233  30.709  50.126
28430W        W20354  48.182  35.237  52.408
28431W        W20355  19.260  13.264  51.964
28432W        W20356  35.195  47.697  52.880
28433W        W20357  27.711  10.768  51.959
28434W        W20358  28.253   3.761  50.159
28435W        W20359  13.750  45.202  53.804
28436W        W20360  14.227   0.757  49.700
28437W        W20361  43.692  37.713  50.592
28438W        W20362   1.769  29.211  49.699
28439W        W20363  23.715  39.703  49.689
28440W        W20364  20.252  24.234  51.977
28441W        W20365  30.733  24.224  51.961
28442W        W20366  41.203   7.262  52.885
28443W        W20367   0.271   1.757  51.979
28444W        W20368  32.715   3.289  50.148
28445W        W20369  11.238  31.731  50.605
28446W        W20370  43.725  35.736  52.861
28447W        W20371  22.713  33.215  49.681
28448W        W20372  18.722  13.240  52.417
28449W        W20373  38.235   9.761  51.036
28450W        W20374  41.691  38.188  53.342
28451W        W20375  18.229  43.187  53.782
28452W        W20376  17.229   2.754  50.128
28453W        W20377   4.759  29.249  53.352
28454W        W20378  29.213  12.737  52.879
28455W        W20379  24.254  40.691  51.515
28456W        W20380  40.725  23.241  52.873
28457W        W20381   9.755  19.721  52.442
28458W        W20382  27.246   5.771  51.956
28459W        W20383  12.772  47.212  51.069
28460W        W20384  12.257  43.209  51.497
28461W        W20385  32.199  13.271  52.440
28462W        W20386  34.735  22.247  50.579
28463W        W20387  23.755  10.268  52.888
28464W        W20388   8.753   1.788  51.979
28465W        W20389  34.700  11.760  50.162
28466W        W20390  27.714  44.190  49.689
28467W        W20391  32.720  14.731  50.600
28468W        W20392  15.758  44.717  50.157
28469W        W20393  17.238  13.762  51.046
28470W        W20394  15.746  20.751  53.334
28471W        W20395   1.248  36.202  53.772
28472W        W20396   8.739  24.736  49.686
28473W        W20397  47.197  44.696  49.681
28474W        W20398   3.762   7.765  52.901
28475W        W20399  42.703   5.751  52.903
28476W        W20400  45.189  44.227  51.066
28477W        W20401  22.241  22.738  50.150
28478W        W20402  29.227  15.260  53.354
28479W        W20403   8.286  10.280  53.812
28480W        W20404  38.235  47.205  51.076
28481W        W20405  19.249  24.741  51.497
28482W        W20406   4.278  20.758  53.818
28483W        W20407  11.753  37.724  51.037
28484W        W20408   7.262  38.728  51.063
28485W        W20409  25.233   2.785  51.961
28486W        W20410  43.713  33.729  51.516
28487W        W20411  32.714   2.266  50.132
28488W        W20412  11.775   3.781  53.351
28489W        W20413  41.699  14.259  51.500
28490W        W20414  28.230  41.707  51.497
28491W        W20415  13.252  15.756  51.984
28492W        W20416  34.220  41.729  53.805
28493W        W20417  17.731  16.271  49.687
28494W        W20418  46.680   5.748  51.991
28495W        W20419  48.190  41.228  51.510
28496W        W20420  15.260  41.210  52.439
28497W        W20421  29.222  46.174  53.781
28498W        W20422   9.284  44.182  53.342
28499W        W20423  35.728  48.182  53.321
28500W        W20424  47.677  21.222  50.591
28501W        W20425  38.214  15.746  50.582
28502W        W20426   9.243   9.241  51.957
28503W        W20427  29.749   0.292  53.348
28504W        W20428  27.710  30.242  52.412
28505W        W20429  35.696  12.757  52.897
28506W        W20430   3.755  21.757  50.130
28507W        W20431  15.249  18.237  51.053
28508W        W20432  23.212   5.790  51.053
28509W        W20433   5.289  23.259  53.776
28510W        W20434  42.725  27.717  50.590
28511W        W20435  45.685   9.762  52.409
28512W        W20436  11.267  40.206  51.522
28513W        W20437   1.279  11.281  51.494
28514W        W20438   1.288  43.214  49.687
28515W        W20439  11.760  47.197  51.079
28516W        W20440  25.715   0.275  49.691
28517W        W20441  30.224  20.232  51.970
28518W        W20442  23.247   4.287  52.862
28519W        W20443   8.763   9.768  52.419
28520W        W20444  31.725  33.719  52.874
28521W        W20445  15.769  14.742  52.902
28522W        W20446  10.757   0.749  51.514
28523W        W20447  38.705  37.203  52.405
28524W        W20448   4.749   5.267  53.324
28525W        W20449  18.725   9.261  51.983
28526W        W20450  11.261  30.210  49.667
28527W        W20451  23.718  24.223  50.163
28528W        W20452   2.750   2.756  51.534
28529W        W20453  46.716  42.188  53.326
28530W        W20454  26.748   0.783  53.333
28531W        W20455  45.176  33.218  53.320
28532W        W20456  27.213  46.703  53.336
28533W        W20457   1.772  28.243  52.424
28534W        W20458  43.208  13.278  50.583
28535W        W20459  18.254  48.171  53.344
28536W        W20460  32.211  42.185  52.406
28537W        W20461   1.780   3.260  52.894
28538W        W20462  41.201  40.692  52.879
28539W        W20463  42.719  37.689  50.584
28540W        W20464   6.246  11.232  52.444
28541W        W20465   3.283  45.180  51.517
28542W        W20466  25.710  40.706  49.667
28543W        W20467  23.238  18.248  51.955
28544W        W20468  29.708  33.216  51.066
28545W        W20469  44.187  20.722  50.595
28546W        W20470  25.258  12.245  51.065
28547W        W20471   4.759   2.263  50.586
28548W        W20472  42.228  30.241  52.869
28549W        W20473  19.762  17.724  51.499
28550W        W20474  25.737  44.715  51.501
28551W        W20475   6.752  17.237  53.361
28552W        W20476  31.705   0.776  53.781
28553W        W20477  24.729  31.701  50.591
28554W        W20478   1.260  27.236  52.424
28555W        W20479  10.765  28.249  51.061
28556W        W20480  28.721  27.249  52.448
28557W        W20481  44.713  11.268  53.811
28558W        W20482  31.698  28.729  51.078
28559W        W20483  14.230  37.231  53.324
28560W        W20484   6.287   6.254  52.888
28561W        W20485  43.705  47.208  51.049
28562W        W20486  10.266  13.262  52.440
28563W        W20487   3.256  12.270  50.622
28564W        W20488  21.742   5.258  52.876
28565W        W20489   2.759  42.693  50.619
28566W        W20490   5.755   6.755  50.164
28567W        W20491   5.781  18.240  51.513
28568W        W20492  37.233  16.250  51.518
28569W        W20493   6.750  31.229  52.437
28570W        W20494  34.243   9.771  53.774
28571W        W20495  17.231  13.754  53.817
28572W        W20496  20.246  23.745  51.980
28573W        W20497  17.724  10.266  53.781
28574W        W20498  20.761  24.735  49.675
28575W        W20499  16.770  18.727  53.324
28576W        W20500  29.745   5.753  50.125
28577W        W20501   6.749  13.269  52.433
28578W        W20502  43.698  29.723  49.688
28579W        W20503  13.755  13.730  51.977
28580W        W20504  47.209  15.261  49.672
28581W        W20505  19.226  40.727  51.034
28582W        W20506  19.222   4.272  51.505
28583W        W20507  39.198  19.248  51.048
28584W        W20508  28.212  26.752  51.493
28585W        W20509   1.284  20.729  53.791
28586W        W20510  37.189   1.793  52.898
28587W        W20511  19.750  29.223  52.864
28588W        W20512  47.680   3.270  52.422
28589W        W20513  10.241   3.254  50.125
28590W        W20514  11.743   5.257  52.411
28591W        W20515  36.210  29.740  52.427
28592W        W20516  22.252   9.235  51.049
28593W        W20517  15.264  35.702  51.519
28594W        W20518  14.268  27.739  50.591
28595W        W20519  12.261  37.714  52.874
28596W        W20520  31.744  34.727  50.130
28597W        W20521  43.199   2.788  52.889
28598W        W20522  39.199  41.714  50.139
28599W        W20523  42.204  21.265  49.673
28600W        W20524  20.736  24.754  52.884
28601W        W20525  30.231  25.241  51.502
28602W        W20526  28.207   6.776  51.964
28603W        W20527  30.739  39.215  53.790
28604W        W20528  41.723  47.699  51.977
28605W        W20529  19.736  29.704  53.344
28606W        W20530  12.253  26.730  51.490
28607W        W20531   5.776   9.284  50.137
28608W        W20532  47.221  43.199  52.439
28609W        W20533  25.242   3.783  49.698
28610W        W20534  24.255   4.772  53.813
28611W        W20535  24.749  28.715  51.950
28612W        W20536  24.236  26.720  52.875
28613W        W20537   3.767  36.225  49.670
28614W        W20538  16.269   4.754  49.683
28615W        W20539  26.249   4.769  51.533
28616W        W20540  46.186  22.724  53.330
28617W        W20541   2.255  27.744  50.584
28618W        W20542  31.743  45.201  53.341
28619W        W20543  43.202  26.707  53.787
28620W        W20544  11.734  29.243  53.801
28621W        W20545  47.698  44.717  51.971
28622W        W20546   3.744  25.235  50.163
28623W        W20547   5.751  46.680  52.440
28624W        W20548   3.759  23.742  52.876
28625W        W20549  24.210   1.274  53.330
28626W        W20550  19.749   5.767  50.143
28627W        W20551  28.741  27.214  49.673
28628W        W20552   9.248  42.202  50.123
28629W        W20553  14.757  19.221  51.064
28630W        W20554  23.729  34.229  51.522
28631W        W20555  22.214  44.211  52.863
28632W        W20556  20.738  23.742  51.073
28633W        W20557  44.210  17.246  49.687
28634W        W20558   8.757  27.738  51.964
28635W        W20559   4.752   6.770  51.048
28636W        W20560  46.699  19.756  50.144
28637W        W20561   9.781   5.267  51.532
28638W        W20562   0.257  46.183  50.584
28639W        W20563  39.704   2.256  49.705
28640W        W20564   7.263   2.755  53.319
28641W        W20565  24.255  47.215  49.668
28642W        W20566  34.737  38.213  51.956
28643W        W20567  48.189  18.233  50.159
28644W        W20568  44.696  36.736  52.873
28645W        W20569   0.757  34.701  50.579
28646W        W20570  27.214   2.252  51.956
28647W        W20571  43.223  32.239  51.522
28648W        W20572  21.747  34.736  53.797
28649W        W20573  32.205  22.743  53.333
28650W        W20574   8.783   7.269  51.061
28651W        W20575  48.182  24.746  50.581
28652W        W20576   7.780  16.224  51.987
28653W        W20577   3.269  42.716  53.800
28654W        W20578  28.731  22.253  51.079
28655W        W20579  38.211   6.744  52.873
28656W        W20580  30.210  25.239  51.075
28657W        W20581   2.765  10.239  53.780
28658W        W20582   3.271  15.731  52.417
28659W        W20583   3.258  29.708  51.045
28660W        W20584  29.731  43.680  50.617
28661W        W20585  18.752   7.742  53.327
28662W        W20586  19.226   8.267  49.694
28663W        W20587  26.246  30.248  51.061
28664W        W20588   5.287   1.253  51.533
28665W        W20589  41.219  45.717  51.078
28666W        W20590  38.206  34.698  52.870
28667W        W20591  46.700  46.707  51.066
28668W        W20592  42.214  29.713  53.783
28669W        W20593  27.248  41.209  51.511
28670W        W20594  32.703  37.711  50.146
28671W        W20595   9.783  30.204  51.040
28672W        W20596   6.268  18.229  51.498
28673W        W20597  47.681   7.270  51.949
28674W        W20598  11.743  14.231  52.437
28675W        W20599   1.297  27.246  53.355
28676W        W20600  28.247  34.223  50.128
28677W        W20601  25.732   1.278  52.901
28678W        W20602  10.765  36.703  49.672
28679W        W20603  21.232  33.705  53.319
28680W        W20604  11.741  12.259  53.318
28681W        W20605  41.693  38.218  53.810
28682W        W20606  24.724  22.246  53.357
28683W        W20607  18.752  33.696  50.152
28684W        W20608  39.197   2.291  52.447
28685W        W20609  39.186  44.221  51.948
28686W        W20610   9.255  34.726  50.577
28687W        W20611  35.712  45.695  51.992
28688W        W20612  21.262  26.727  49.674
28689W        W20613  44.707  30.729  51.058
28690W        W20614  36.229  31.733  52.446
28691W        W20615  32.743  28.713  51.491
28692W        W20616  12.735  19.757  53.805
28693W        W20617  12.234  45.724  51.055
28694W        W20618   6.755  40.710  51.968
28695W        W20619  13.732  31.703  53.320
28696W        W20620  23.260  22.756  50.124
28697W        W20621  16.230  24.727  50.609
28698W        W20622  10.270  26.239  49.697
28699W        W20623   2.761  28.224  51.510
28700W        W20624  43.698  27.726  51.958
28701W        W20625  15.260  25.210  53.353
28702W        W20626  29.737  36.216  49.706
28703W        W20627  15.730  24.250  51.053
28704W        W20628  37.234   2.778  49.704
28705W        W20629  25.742  27.751  52.418
28706W        W20630   7.776  46.217  51.505
28707W        W20631  28.736   5.282  53.332
28708W        W20632  16.758  34.699  51.958
28709W        W20633  15.261  32.204  52.900
28710W        W20634  46.716   4.274  53.322
28711W        W20635  10.275  48.209  53.340
28712W        W20636  37.207   3.277  51.504
28713W        W20637  42.724  24.739  51.950
28714W        W20638  12.260  31.731  52.879
28715W        W20639  44.200  25.254  52.897
28716W        W20640  36.213  14.754  50.593
28717W        W20641  22.745   1.293  52.425
28718W        W20642  30.203  24.223  51.949
28719W        W20643  16.238  43.696  50.584
28720W        W20644  15.240  34.726  52.438
28721W        W20645  17.270  32.232  52.430
28722W        W20646  13.240  42.727  52.440
28723W        W20647  31.240  24.239  50.606
28724W        W20648  35.216  19.230  53.807
28725W        W20649  23.753   2.276  51.061
28726W        W20650   0.263  17.765  50.589
28727W        W20651  18.235  34.698  51.036
28728W        W20652  18.764  32.204  50.124
28729W        W20653  38.712  37.716  51.054
28730W        W20654  10.256  30.235  53.794
28731W        W20655   0.796  41.682  51.979
28732W        W20656  39.688  37.718  51.985
28733W        W20657  27.734   5.275  52.887
28734W        W20658  45.691  35.702  53.330
28735W        W20659  22.245  41.688  52.445
28736W        W20660  38.721  43.187  50.149
28737W        W20661  40.215  43.194  50.619
28738W        W20662  43.703   3.278  51.498
28739W        W20663  34.202  26.723  50.603
28740W        W20664  32.735   2.290  49.700
28741W        W20665  38.704  33.223  51.515
28742W        W20666  43.723  18.237  51.971
28743W        W20667   9.760  12.736  53.781
28744W        W20668   3.787   3.748  53.780
28745W        W20669  19.760   9.759  51.535
28746W        W20670  41.715  42.683  50.123
28747W        W20671  39.211   4.290  51.496
28748W        W20672  27.723  47.174  51.970
28749W        W20673  23.242  18.256  49.700
28750W        W20674  44.724  28.714  53.815
28751W        W20675  28.748  18.258  50.609
28752W        W20676  46.678  24.257  51.523
28753W        W20677  28.242  26.235  52.885
28754W        W20678  28.226  24.220  52.407
28755W        W20679  28.235   3.282  50.602
28756W        W20680  46.719  19.737  50.602
28757W        W20681  35.694  11.246  52.443
28758W        W20682  18.747  19.228  51.065
28759W        W20683  20.728   3.789  50.606
28760W        W20684  26.214   4.252  50.142
28761W        W20685   4.255  19.254  51.988
28762W        W20686  34.206  28.741  53.779
28763W        W20687  43.212  16.247  53.793
28764W        W20688  15.233   0.765  51.513
28765W        W20689  34.226  41.688  51.513
28766W        W20690  30.704  28.213  50.123
28767W        W20691   4.768  19.242  52.883
28768W        W20692  24.735  24.732  53.342
28769W        W20693  25.217  33.738  52.440
28770W        W20694  38.211  44.191  53.801
28771W        W20695  36.232  17.234  49.697
28772W        W20696  12.777  19.729  51.960
28773W        W20697   4.266  25.726  53.320
28774W        W20698  18.756  12.764  49.699
28775W        W20699  41.683   8.268  51.989
28776W        W20700   7.782  44.698  53.785
28777W        W20701   1.262  29.708  52.902
28778W        W20702  15.760  36.226  51.507
28779W        W20703  14.261  12.767  52.431
28780W        W20704  27.723  19.230  49.698
28781W        W20705  13.274   8.251  51.075
28782W        W20706  27.219  40.723  49.683
28783W        W20707  45.710  31.713  50.136
28784W        W20708  43.219  38.204  53.323
28785W        W20709  39.689   2.269  50.135
28786W        W20710  45.192  31.206  50.602
28787W        W20711  38.235  20.749  50.623
28788W        W20712  23.242  29.741  49.666
28789W        W20713  36.208  47.213  52.419
28790W        W20714   8.754   6.261  53.777
28791W        W20715  29.211  43.691  53.341
28792W        W20716  33.705  20.243  52.899
28793W        W20717  45.187  34.708  50.136
28794W        W20718  44.701   2.775  53.811
28795W        W20719  14.733  20.759  53.783
28796W        W20720  30.201  12.231  52.425
28797W        W20721  47.206   9.242  49.686
28798W        W20722  33.220  47.672  50.593
28799W        W20723   6.248  35.706  52.437
28800W        W20724  14.756  23.750  51.988
28801W        W20725   0.252  28.246  50.159
28802W        W20726  44.693  21.250  49.673
28803W        W20727   0.268  24.711  53.797
28804W        W20728  41.682  38.218  50.128
28805W        W20729  44.722   9.754  49.687
28806W        W20730  13.238  33.719  49.672
28807W        W20731  12.772  20.748  50.124
28808W        W20732  18.747  41.196  51.978
28809W        W20733  21.743  23.719  52.416
28810W        W20734  45.215  13.274  52.884
28811W        W20735  47.708  21.248  52.876
28812W        W20736  12.733  22.213  53.337
28813W        W20737  26.246   5.243  53.779
28814W        W20738  39.222  12.261  53.351
28815W        W20739   3.250  43.194  49.680
28816W        W20740   2.788  37.706  53.786
28817W        W20741  35.201   6.787  51.068
28818W        W20742  22.744  39.199  52.865
28819W        W20743  20.248  11.267  51.066
28820W        W20744  12.746  21.263  52.866
28821W        W20745  40.227  16.754  53.779
28822W        W20746  27.734   3.291  50.154
28823W        W20747  34.206   4.781  53.787
28824W        W20748  34.220  23.221  50.606
28825W        W20749   7.276  10.239  49.692
28826W        W20750  38.700  35.230  51.070
28827W        W20751  20.754  37.234  52.447
28828W        W20752  44.213   8.240  50.139
28829W        W20753  28.229   9.264  53.816
28830W        W20754  34.705  18.757  51.512
28831W        W20755  18.236  15.274  50.595
28832W        W20756  30.250   9.239  49.695
28833W        W20757  13.756   7.775  51.046
28834W        W20758  12.767  46.683  49.673
28835W        W20759   6.253   8.251  50.604
28836W        W20760   3.293  33.704  53.809
28837W        W20761  47.177   1.756  52.436
28838W        W20762   4.769  18.223  49.677
28839W        W20763  24.733  38.195  52.904
28840W        W20764  36.734  37.737  53.772
28841W        W20765  22.246   5.286  50.142
28842W        W20766   2.790  24.749  49.668
28843W        W20767  40.706  20.735  49.708
28844W        W20768  46.208  14.737  51.053
28845W        W20769  16.770  46.699  53.790
28846W        W20770  18.256  39.727  49.686
28847W        W20771  26.722  46.197  51.531
28848W        W20772  30.728  39.726  51.510
28849W        W20773  22.734  35.707  51.988
28850W        W20774  21.759  46.681  49.689
28851W        W20775   8.751  44.692  51.049
28852W        W20776  14.249  26.214  52.427
28853W        W20777  48.212  36.698  50.603
28854W        W20778  47.194  26.229  51.950
28855W        W20779  26.744   7.245  51.052
28856W        W20780   2.296  23.755  51.041
28857W        W20781  46.700  12.739  51.500
28858W        W20782  38.228  18.259  52.892
28859W        W20783  45.202  19.224  52.881
28860W        W20784  18.266  15.264  53.806
28861W        W20785  18.222  28.241  52.441
28862W        W20786  35.202  32.722  51.065
28863W        W20787   6.267  13.743  51.964
28864W        W20788  39.696   6.759  51.501
28865W        W20789  31.236   0.274  53.795
28866W        W20790  28.222  39.217  50.607
28867W        W20791  14.747  38.699  51.504
28868W        W20792  32.238  16.253  52.903
28869W        W20793  42.224   4.753  51.515
28870W        W20794   8.770  14.241  53.316
28871W        W20795  23.244  20.754  50.596
28872W        W20796   0.793  34.704  51.051
28873W        W20797  17.756  33.221  51.049
28874W        W20798  45.692  30.223  51.971
28875W        W20799  26.241   0.789  51.051
28876W        W20800  48.213  19.258  53.790
28877W        W20801  30.232  10.265  51.493
28878W        W20802  26.232  24.730  50.159
28879W        W20803  46.722   4.777  51.049
28880W        W20804  31.207  42.211  51.965
28881W        W20805  35.723  29.725  53.784
28882W        W20806  40.197  10.741  53.358
28883W        W20807   9.760  19.722  50.579
28884W        W20808  12.764   8.275  51.511
28885W        W20809  14.227  22.744  50.586
28886W        W20810   4.745  18.269  50.596
28887W        W20811  44.712   8.284  53.322
28888W        W20812  32.226  40.732  49.672
28889W        W20813  34.734  37.207  50.595
28890W        W20814  43.182  40.684  49.676
28891W        W20815  47.694   1.297  51.071
28892W        W20816  11.269  32.743  52.868
28893W        W20817  11.745  39.701  51.517
28894W        W20818  18.730  40.214  51.991
28895W        W20819  45.703  14.268  51.982
28896W        W20820  32.720  18.722  52.422
28897W        W20821  31.233  47.692  51.499
28898W        W20822  12.277  26.250  51.068
28899W        W20823  28.210  14.733  51.068
28900W        W20824  22.246  31.243  51.527
28901W        W20825  12.266  46.211  49.666
28902W        W20826  42.694  10.272  53.338
28903W        W20827  16.757  13.752  50.600
28904W        W20828  21.733   8.782  51.511
28905W        W20829  38.218  12.244  52.880
28906W        W20830  27.714  23.747  51.516
28907W        W20831  23.725   8.263  52.865
28908W        W20832  25.218  32.712  50.156
28909W        W20833  45.686  40.696  52.424
28910W        W20834  29.750  22.722  49.685
28911W        W20835  41.715  26.244  52.409
28912W        W20836  26.752  21.725  51.511
28913W        W20837   6.776  36.729  51.044
28914W        W20838  28.738  18.738  51.990
28915W        W20839  20.256  15.732  52.429
28916W        W20840  40.189  12.253  52.415
28917W        W20841  38.722  47.185  53.782
28918W        W20842  44.220  29.250  49.685
28919W        W20843  45.707  20.746  49.696
28920W        W20844   2.293  13.736  51.977
28921W        W20845  38.217  25.737  50.157
28922W        W20846  39.714  29.743  50.611
28923W        W20847  39.186  11.764  51.526
28924W        W20848  13.742   5.253  50.595
28925W        W20849  34.723   9.735  51.521
28926W        W20850  16.770  36.237  53.347
28927W        W20851  34.213   8.266  51.532
28928W        W20852  28.746  33.202  51.974
28929W        W20853  28.708   9.270  49.703
28930W        W20854   1.774  19.243  52.875
28931W        W20855  38.232   9.244  50.617
28932W        W20856  29.709  29.750  50.595
28933W        W20857  31.243  25.216  50.588
28934W        W20858  21.730  18.260  52.877
28935W        W20859  42.198  13.264  51.960
28936W        W20860  18.743  36.239  51.978
28937W        W20861  41.227   4.269  51.036
28938W        W20862  15.232  37.222  50.590
28939W        W20863  35.729   3.776  53.342
28940W        W20864  24.254  13.747  50.603
28941W        W20865  10.239  30.221  51.530
28942W        W20866  45.712   7.252  53.795
28943W        W20867  39.198  18.742  51.523
28944W        W20868  39.708  24.743  50.158
28945W        W20869   1.771  45.682  51.963
28946W        W20870  22.242   0.789  53.782
28947W        W20871  22.235  45.183  52.427
28948W        W20872   8.271  11.770  52.431
28949W        W20873  31.710  22.738  52.419
28950W        W20874  44.706  23.258  51.042
28951W        W20875  23.221  31.227  49.686
28952W        W20876  11.238   4.273  52.878
28953W        W20877  32.718  22.248  52.414
28954W        W20878  12.759  13.229  53.349
28955W        W20879  10.264   3.780  52.891
28956W        W20880  38.191   8.739  51.505
28957W        W20881  48.213  44.185  53.815
28958W        W20882  12.742  47.673  49.685
28959W        W20883  35.194  35.194  52.411
28960W        W20884  19.727   7.770  50.578
28961W        W20885   7.761   7.262  50.123
28962W        W20886   0.792  17.236  52.897
28963W        W20887  45.223   4.286  51.526
28964W        W20888  44.713  36.209  50.586
28965W        W20889   4.273   2.294  50.160
28966W        W20890   2.773   6.284  51.949
28967W        W20891  31.226  34.730  53.345
28968W        W20892  14.774   3.773  49.700
28969W        W20893  12.260   2.793  50.584
28970W        W20894  46.203  26.721  52.864
28971W        W20895  20.764  18.268  50.589
28972W        W20896  43.213   7.769  52.406
28973W        W20897  21.719  11.280  51.990
28974W        W20898   9.747  45.199  50.161
28975W        W20899  40.725  29.207  49.678
28976W        W20900   8.282   6.774  52.403
28977W        W20901  19.258  48.188  52.446
28978W        W20902   8.748  21.216  50.154
28979W        W20903  29.230   4.745  51.947
28980W        W20904  44.702  15.743  50.143
28981W        W20905  20.240  41.696  53.795
28982W        W20906   0.768   1.762  52.433
28983W        W20907  35.726  10.782  52.862
28984W        W20908  30.242  44.181  51.534
28985W        W20909  17.257   9.762  50.152
28986W        W20910   0.299  22.758  52.411
28987W        W20911  37.699  36.196  53.776
28988W        W20912  36.731  13.256  52.420
28989W        W20913   2.784  44.212  51.512
28990W        W20914  36.692  20.731  51.035
28991W        W20915  10.741  13.274  53.328
28992W        W20916  25.721  36.738  50.136
28993W        W20917   4.260  33.695  52.867
28994W        W20918   0.790  21.720  50.607
28995W        W20919  35.212  35.741  51.523
28996W        W20920  43.691  43.199  51.501
28997W        W20921  31.222  35.198  49.671
28998W        W20922  13.263   0.795  53.786
28999W        W20923  40.191   8.772  51.052
29000W        W20924  16.273  16.727  52.884
29001W        W20925  41.229  42.193  50.139
29002W        W20926  43.200  43.714  51.494
29003W        W20927   8.769  45.187  53.318
29004W        W20928  41.230   0.284  51.057
29005W        W20929  10.746  15.737  52.441
29006W        W20930  41.201   9.764  51.962
29007W        W20931   0.784  40.722  51.525
29008W        W20932  37.706  30.237  52.409
29009W        W20933  27.753   4.752  51.522
29010W        W20934  15.232  30.206  50.591
29011W        W20935   7.742  28.747  51.063
29012W        W20936   7.261  34.216  53.810
29013W        W20937   5.760  24.740  51.983
29014W        W20938  38.720  20.259  51.954
29015W        W20939  19.265  41.696  52.877
29016W        W20940  39.696  15.271  49.678
29017W        W20941  12.779  36.709  51.070
29018W        W20942  30.709   1.760  50.162
29019W        W20943   4.268   9.778  52.862
29020W        W20944  33.710  42.689  49.682
29021W        W20945  35.708  31.245  52.448
29022W        W20946  23.235  46.720  53.327
29023W        W20947  47.180   4.259  53.355
29024W        W20948  36.717  46.205  50.152
29025W        W20949  42.686  22.231  49.695
29026W        W20950  18.721   9.266  51.517
29027W        W20951  41.687  20.217  52.879
29028W        W20952  21.238  30.717  50.594
29029W        W20953   0.767  10.776  53.330
29030W        W20954  32.204  29.704  51.971
29031W        W20955  38.190  24.718  49.694
29032W        W20956   8.271  44.188  51.514
29033W        W20957  22.230  16.771  52.902
29034W        W20958  32.203  35.701  51.055
29035W        W20959  29.243  15.770  51.972
29036W        W20960   8.782  27.207  49.679
29037W        W20961  42.689  36.692  51.061
29038W        W20962   6.280   8.269  49.673
29039W        W20963  31.736  39.714  53.355
29040W        W20964  26.244  40.219  50.152
29041W        W20965  15.261  17.756  52.903
29042W        W20966  20.750  32.229  52.431
29043W        W20967  46.188  30.239  51.515
29044W        W20968   9.741  40.695  53.776
29045W        W20969  21.231  11.247  52.873
29046W        W20970  40.195  39.734  51.053
29047W        W20971  11.775  39.203  53.334
29048W        W20972  34.697   1.777  50.589
29049W        W20973  21.722  17.753  50.583
29050W        W20974  16.243  24.255  53.803
29051W        W20975  41.218  10.757  52.431
29052W        W20976  12.745   0.298  53.331
29053W        W20977  22.247  40.199  52.889
29054W        W20978  18.732  14.233  53.335
29055W        W20979   5.756  41.686  53.814
29056W        W20980  14.752  38.212  50.610
29057W        W20981  39.715   5.773  50.583
29058W        W20982  22.249  30.725  53.811
29059W        W20983   5.742   5.747  52.410
29060W        W20984  35.211  20.255  53.345
29061W        W20985  21.748  16.727  51.052
29062W        W20986  44.188  45.687  53.790
29063W        W20987  47.208  14.260  51.957
29064W        W20988  41.208  33.216  52.435
29065W        W20989  46.699   6.271  51.989
29066W        W20990   7.246  31.719  50.134
29067W        W20991   8.746  17.268  53.794
29068W        W20992  44.691  32.745  53.793
29069W        W20993   4.263  33.724  51.050
29070W        W20994  12.240   7.743  50.151
29071W        W20995  30.702  30.740  50.123
29072W        W20996  38.187  35.204  50.605
29073W        W20997  41.695  11.753  51.527
29074W        W20998  15.735  46.182  49.678
29075W        W20999  10.256  11.242  49.701
29076W        W21000  37.229  39.731  51.987
29077W        W21001   7.775  16.233  49.681
29078W        W21002  17.759  18.236  53.322
29079W        W21003  35.220  30.733  53.805
29080W        W21004   0.295  12.733  50.590
29081W        W21005   7.243  40.191  52.902
29082W        W21006  24.213  33.205  51.043
29083W        W21007  17.238   8.742  51.955
29084W        W21008  40.219  43.228  51.070
29085W        W21009  15.226  16.262  50.139
29086W        W21010  20.754  21.261  50.615
29087W        W21011  26.732  33.729  50.615
29088W        W21012  47.709   6.265  53.342
29089W        W21013  23.759  35.201  51.066
29090W        W21014  39.690  13.261  52.880
29091W        W21015   3.761  17.726  51.992
29092W        W21016  33.215   3.288  51.065
29093W        W21017  12.777  37.692  51.499
29094W        W21018  11.763   1.288  50.594
29095W        W21019  28.707   5.290  51.976
29096W        W21020  33.212  44.205  50.147
29097W        W21021  46.711  30.230  51.499
29098W        W21022   9.271  36.238  53.800
29099W        W21023  44.203  14.242  50.160
29100W        W21024  27.738  11.736  53.321
29101W        W21025  10.259  10.763  51.535
29102W        W21026   1.764  10.239  50.581
29103W        W21027  29.205   0.758  53.787
29104W        W21028  28.728  25.224  51.510
29105W        W21029  23.254  31.709  52.885
29106W        W21030  30.726  11.753  51.527
29107W        W21031  30.727  16.768  53.345
29108W        W21032  36.710  35.739  49.671
29109W        W21033   3.779   0.799  50.615
29110W        W21034  38.194  40.683  50.139
29111W        W21035  35.707   3.285  51.496
29112W        W21036   2.764  30.743  52.876
29113W        W21037   8.269  41.217  53.331
29114W        W21038  39.728  13.734  51.969
29115W        W21039  18.251   9.282  52.884
29116W        W21040  17.257  16.768  49.672
29117W        W21041  11.751  11.274  51.517
29118W        W21042  21.235  19.255  50.592
29119W        W21043  23.736  14.750  50.144
29120W        W21044  36.723  45.689  53.341
29121W        W21045  47.183  11.745  50.596
29122W        W21046  45.694  11.232  52.435
29123W        W21047   9.765   8.264  49.676
29124W        W21048  10.276  27.234  52.411
29125W        W21049  15.735  37.737  50.605
29126W        W21050  15.231  46.716  50.615
29127W        W21051  40.193   3.271  51.962
29128W        W21052   5.790  12.741  50.601
29129W        W21053  15.232   4.256  50.124
29130W        W21054  21.749   5.767  49.672
29131W        W21055  30.745  12.269  49.682
29132W        W21056  34.726  26.240  51.521
29133W        W21057  43.716  35.241  50.595
29134W        W21058  31.241  41.699  52.436
29135W        W21059  31.726  36.714  51.491
29136W        W21060  40.194  28.747  49.699
29137W        W21061  23.239  39.185  52.423
29138W        W21062  43.179  29.230  50.600
29139W        W21063  12.246   7.268  52.871
29140W        W21064  20.754  27.223  51.079
29141W        W21065  45.698  46.181  51.991
29142W        W21066  22.257  39.209  49.666
29143W        W21067   8.268  10.757  51.974
29144W        W21068  40.219  12.749  53.772
29145W        W21069  35.732  23.248  51.534
29146W        W21070  39.699  39.229  50.126
29147W        W21071  34.234   8.749  52.891
29148W        W21072   4.776  21.234  50.602
29149W        W21073  48.218  20.229  52.422
29150W        W21074  10.752  37.721  51.062
29151W        W21075  15.738  26.240  51.058
29152W        W21076   9.740  38.717  53.330
29153W        W21077  29.723   0.752  50.597
29154W        W21078   5.287  19.226  53.814
29155W        W21079  29.217   1.772  52.899
29156W        W21080   4.780  26.717  51.492
29157W        W21081   0.250   2.765  53.811
29158W        W21082   6.773  23.718  52.892
29159W        W21083  19.251  40.719  51.962
29160W        W21084   6.274  29.234  50.157
29161W        W21085  36.692   3.281  50.126
29162W        W21086  16.244  34.708  53.354
29163W        W21087  25.729  36.705  52.888
29164W        W21088  44.219  37.218  53.332
29165W        W21089  25.218  25.740  52.411
29166W        W21090  17.257  20.235  53.800
29167W        W21091  41.205  25.747  52.431
29168W        W21092  48.173  14.271  50.158
29169W        W21093   4.761  28.211  50.600
29170W        W21094  30.728  23.241  51.516
29171W        W21095   3.260  11.234  53.774
29172W        W21096  11.778  21.726  52.437
29173W        W21097   1.262  34.213  53.786
29174W        W21098  23.258  39.700  51.504
29175W        W21099  37.690  36.708  50.587
29176W        W21100  23.261  30.712  51.505
29177W        W21101  44.224  23.238  53.349
29178W        W21102   2.783  18.270  50.159
29179W        W21103  10.279  14.732  53.778
29180W        W21104   3.275  28.225  52.439
29181W        W21105  32.707  34.205  50.127
29182W        W21106  19.228   4.269  53.772
29183W        W21107  12.768  38.734  52.422
29184W        W21108   1.272  26.746  52.869
29185W        W21109  19.762  26.713  52.888
29186W        W21110   3.246  46.183  52.865
29187W        W21111   3.760  18.764  50.160
29188W        W21112   4.260   0.252  51.519
29189W        W21113  46.713  45.690  51.963
29190W        W21114  32.729  30.240  52.860
29191W        W21115  47.188   0.273  50.579
29192W        W21116  40.704  23.219  53.775
29193W        W21117  25.722  12.250  51.507
29194W        W21118  16.234  43.212  50.577
29195W        W21119  47.220  46.709  51.058
29196W        W21120   4.792  26.732  50.592
29197W        W21121  24.238  17.225  51.500
29198W        W21122  41.685  17.222  51.047
29199W        W21123  34.740  22.216  52.872
29200W        W21124   7.769  37.691  51.982
29201W        W21125   3.287  33.697  51.988
29202W        W21126  43.217  27.224  51.510
29203W        W21127  44.690  21.754  50.600
29204W        W21128  14.744  18.257  50.129
29205W        W21129  12.268  35.226  52.874
29206W        W21130  17.763  14.727  52.871
29207W        W21131  31.699  26.743  52.426
29208W        W21132  42.682   5.781  53.336
29209W        W21133  34.742  20.726  53.330
29210W        W21134   4.792   7.747  51.979
29211W        W21135  14.726  28.746  53.812
29212W        W21136  39.697  27.253  53.806
29213W        W21137  38.194  26.712  51.491
29214W        W21138  41.208  28.721  50.620
29215W        W21139  34.210  33.724  51.513
29216W        W21140   5.248  40.189  52.446
29217W        W21141  42.207  30.718  53.811
29218W        W21142   2.757  13.254  51.068
29219W        W21143  26.240   8.758  51.517
29220W        W21144  40.211  17.758  53.791
29221W        W21145  31.698  20.238  50.145
29222W        W21146  10.281  38.689  50.617
29223W        W21147  20.229  44.706  51.510
29224W        W21148  33.239  28.222  53.346
29225W        W21149  20.221  20.747  53.335
29226W        W21150  12.279  44.720  52.877
29227W        W21151   4.771  19.235  53.332
29228W        W21152  42.685  16.255  51.977
29229W        W21153  43.215  10.734  51.037
29230W        W21154  24.723  44.189  49.691
29231W        W21155   6.270  12.235  49.708
29232W        W21156  40.202  32.230  51.523
29233W        W21157   4.751   9.239  53.800
29234W        W21158   7.766  26.241  50.121
29235W        W21159  34.706   3.764  52.410
29236W        W21160  23.224   5.787  51.496
29237W        W21161  24.735  29.212  51.064
29238W        W21162   6.258  35.721  53.783
29239W        W21163   3.790   7.748  52.445
29240W        W21164  28.218  24.748  51.523
29241W        W21165  39.687  37.227  51.982
29242W        W21166  16.771  20.732  51.951
29243W        W21167  14.759  20.240  53.357
29244W        W21168  26.248   7.753  51.500
29245W        W21169   1.254  26.733  50.144
29246W        W21170   4.780   7.771  53.790
29247W        W21171  29.708  38.197  51.051
29248W        W21172  17.270  13.744  51.963
29249W        W21173  12.268  13.262  49.691
29250W        W21174   9.743  47.179  51.503
29251W        W21175  22.733  46.199  50.125
29252W        W21176  20.251   5.264  51.531
29253W        W21177  36.698   5.262  49.696
29254W        W21178  13.243  29.234  50.580
29255W        W21179   1.784  35.220  51.502
29256W        W21180   2.776  18.754  53.785
29257W        W21181  31.728  16.738  50.597
29258W        W21182  30.710  11.732  49.674
29259W        W21183  41.694  48.218  52.411
29260W        W21184  47.693  15.255  53.333
29261W        W21185   1.293  27.223  53.779
29262W        W21186  37.707  37.703  51.521
29263W        W21187   9.275  22.218  52.420
29264W        W21188  41.198  38.733  53.337
29265W        W21189  32.697  42.690  50.587
29266W        W21190  11.759  25.241  52.442
29267W        W21191  33.238  35.224  49.678
29268W        W21192  46.204  15.759  52.409
29269W        W21193   0.785  41.198  51.057
29270W        W21194  33.216  33.224  49.687
29271W        W21195  19.254  13.238  53.797
29272W        W21196  15.729  36.211  51.958
29273W        W21197   2.760   6.781  51.967
29274W        W21198  24.711  17.755  50.160
29275W        W21199  36.192  29.716  53.813
29276W        W21200  27.749  13.751  49.710
29277W        W21201   3.772  27.743  52.872
29278W        W21202  36.207   0.289  53.360
29279W        W21203  21.735  17.258  51.501
29280W        W21204   0.758  16.728  51.055
29281W        W21205  47.690  48.213  49.694
29282W        W21206  38.189  46.182  50.581
29283W        W21207  39.732  16.732  51.964
29284W        W21208   5.748  42.225  50.611
29285W        W21209  36.725  12.748  52.408
29286W        W21210  14.257   9.741  50.133
29287W        W21211   4.780  24.757  51.965
29288W        W21212  18.224  19.246  51.071
29289W        W21213  42.700  39.693  50.595
29290W        W21214  31.246  45.721  52.884
29291W        W21215  15.249  36.225  53.337
29292W        W21216  39.190  46.701  52.880
29293W        W21217  11.772  38.230  50.603
29294W        W21218  47.710  10.276  49.683
29295W        W21219   2.759   0.294  50.138
29296W        W21220  36.238  29.214  52.410
29297W        W21221  11.243  26.212  52.862
29298W        W21222   8.271  37.208  49.704
29299W        W21223  19.750  20.246  51.509
29300W        W21224   3.786   5.756  50.583
29301W        W21225  10.268  11.238  51.953
29302W        W21226  16.764  25.233  51.984
29303W        W21227  42.208  15.252  53.800
29304W        W21228   6.759  34.724  51.034
29305W        W21229  28.213  17.227  52.863
29306W        W21230  13.775  48.207  51.495
29307W        W21231  32.743  44.686  52.445
29308W        W21232  14.758   1.763  50.164
29309W        W21233  26.708  34.235  51.058
29310W        W21234  23.254  31.709  51.955
29311W        W21235  11.235   1.298  50.141
29312W        W21236  16.723  22.251  50.155
29313W        W21237  33.203  17.227  50.164
29314W        W21238  12.278  32.726  53.357
29315W        W21239   4.788  29.718  51.068
29316W        W21240  28.743  32.244  51.503
29317W        W21241   6.279  27.729  50.603
29318W        W21242  39.191  43.198  51.961
29319W        W21243   8.769   9.748  50.147
29320W        W21244  45.695   4.285  50.613
29321W        W21245   6.276  39.713  53.798
29322W        W21246  31.744  25.724  52.888
29323W        W21247  24.224  40.193  50.155
29324W        W21248  31.202  46.201  52.884
29325W        W21249  22.734  46.679  51.533
29326W        W21250  34.205  19.754  49.666
29327W        W21251  20.742   5.291  49.709
29328W        W21252   6.252  35.699  52.862
29329W        W21253  17.755   1.791  53.329
29330W        W21254  22.720   4.249  49.709
29331W        W21255  35.740  37.195  53.797
29332W        W21256  11.242  46.181  51.505
29333W        W21257  15.256  21.757  50.133
29334W        W21258  26.740   0.281  52.433
29335W        W21259  26.241   0.778  50.610
29336W        W21260  32.247  40.184  52.404
29337W        W21261  46.680  20.248  53.319
29338W        W21262  33.232  11.764  49.680
29339W        W21263  15.230  42.187  53.353
29340W        W21264  30.227  28.252  52.891
29341W        W21265   7.781  18.250  49.692
29342W        W21266  45.188  17.222  51.075
29343W        W21267  14.255  29.705  51.954
29344W        W21268  41.693   7.280  50.161
29345W        W21269  12.757  47.206  51.508
29346W        W21270  40.701  29.713  49.674
29347W        W21271  29.711  33.739  52.900
29348W        W21272   6.785  45.181  51.986
29349W        W21273  19.721  13.267  53.349
29350W        W21274  35.240  10.781  52.403
29351W        W21275  22.735  21.255  50.603
29352W        W21276  44.698  26.240  50.140
29353W        W21277  25.748  42.186  53.795
29354W        W21278  32.221   5.749  52.411
29355W        W21279  12.760   8.769  49.683
29356W        W21280   1.272  22.246  50.153
29357W        W21281   5.287  23.246  51.976
29358W        W21282  22.222  25.709  51.078
29359W        W21283  11.269   2.770  51.986
29360W        W21284  31.698  16.234  49.676
29361W        W21285  24.230  37.727  51.059
29362W        W21286  17.232   1.796  53.345
29363W        W21287  40.689  38.227  50.582
29364W        W21288  25.746  36.705  51.947
29365W        W21289  40.192  37.202  51.963
29366W        W21290   4.257   6.255  51.988
29367W        W21291   0.762  25.721  50.587
29368W        W21292  14.770   3.752  52.446
29369W        W21293   1.262  41.702  51.063
29370W        W21294  21.749   6.742  53.333
29371W        W21295   8.757  12.233  51.969
29372W        W21296   7.249  27.721  52.872
29373W        W21297  45.191  22.215  50.593
29374W        W21298  44.725  15.225  50.157
29375W        W21299  28.219  37.717  50.132
29376W        W21300  48.180  10.254  52.879
29377W        W21301  12.235  15.268  51.953
29378W        W21302   4.245  27.714  53.336
29379W        W21303  22.230  45.688  51.492
29380W        W21304  35.200  18.763  52.412
29381W        W21305  43.213  26.210  51.949
29382W        W21306  10.279  15.731  53.345
29383W        W21307  28.705  24.723  51.520
29384W        W21308  47.721   7.244  53.799
29385W        W21309  40.724  29.212  52.438
29386W        W21310  25.750  22.724  49.709
29387W        W21311  36.199   6.776  52.867
29388W        W21312  10.756  41.196  52.433
29389W        W21313  35.233   8.280  53.359
29390W        W21314  42.680  16.229  53.353
29391W        W21315   7.770  45.183  53.797
29392W        W21316  37.193  48.207  53.327
29393W        W21317   8.269  40.185  53.812
29394W        W21318   7.752  13.740  52.902
29395W        W21319  40.216  19.758  52.876
29396W        W21320   8.270  32.710  52.446
29397W        W21321  13.750  25.739  51.046
29398W        W21322  25.258   1.259  51.040
29399W        W21323  30.236  35.693  53.326
29400W        W21324  31.210  24.215  52.885
29401W        W21325  24.250  32.736  51.503
29402W        W21326  34.717   7.774  50.163
29403W        W21327  17.769  20.751  52.428
29404W        W21328  45.182  11.239  51.519
29405W        W21329  28.749  24.230  51.048
29406W        W21330  19.749  23.713  51.038
29407W        W21331   9.272  31.725  52.423
29408W        W21332   1.288  26.725  51.524
29409W        W21333  10.763  11.759  52.863
29410W        W21334  45.690  19.752  50.594
29411W        W21335  22.241  25.754  53.809
29412W        W21336  47.685  42.714  51.075
29413W        W21337   6.252  30.213  50.127
29414W        W21338  16.234   6.240  51.044
29415W        W21339  41.202   2.272  51.525
29416W        W21340   2.273  18.763  53.794
29417W        W21341   7.741  41.694  51.967
29418W        W21342  20.749  28.230  50.147
29419W        W21343   5.779  37.729  50.156
29420W        W21344  19.746  30.241  53.793
29421W        W21345   2.793  43.211  53.346
29422W        W21346  22.733  11.772  50.582
29423W        W21347  34.706  23.717  51.037
29424W        W21348  28.710  21.752  52.869
29425W        W21349  18.758  31.704  51.523
29426W        W21350  46.187   9.271  52.877
29427W        W21351  29.713  21.221  50.581
29428W        W21352   0.273  32.699  52.872
29429W        W21353  26.220   2.261  52.447
29430W        W21354  35.235  43.686  50.150
29431W        W21355  10.247  18.258  51.051
29432W        W21356  11.275   7.239  50.595
29433W        W21357  45.177  21.732  52.879
29434W        W21358  40.701  24.220  51.064
29435W        W21359  42.701  11.778  49.679
29436W        W21360  18.265  14.747  51.063
29437W        W21361  28.725  10.734  49.703
29438W        W21362  19.225  18.234  53.773
29439W        W21363  37.692  27.228  49.710
29440W        W21364   8.745  47.175  52.410
29441W        W21365   3.271  47.713  51.518
29442W        W21366  34.720  30.227  49.681
29443W        W21367  17.254  15.261  53.811
29444W        W21368   0.283  46.195  51.954
29445W        W21369  32.224  15.757  50.593
29446W        W21370  35.737  38.688  50.152
29447W        W21371  10.266  33.719  50.160
29448W        W21372  44.205   5.754  53.811
29449W        W21373  41.724  10.757  49.705
29450W        W21374  21.731  14.233  53.780
29451W        W21375  33.742  29.228  53.355
29452W        W21376  43.685  44.708  49.707
29453W        W21377  37.228  14.261  51.522
29454W        W21378   2.765  30.737  50.148
29455W        W21379   0.780  16.237  52.445
29456W        W21380  13.773  16.762  53.812
29457W        W21381  26.726   7.786  50.608
29458W        W21382   2.770  47.190  49.704
29459W        W21383  22.713  11.256  50.602
29460W        W21384  26.712  26.731  50.139
29461W        W21385  32.732  14.275  50.595
29462W        W21386  39.703  28.735  51.060
29463W        W21387  14.729  39.229  49.686
29464W        W21388  21.744   4.762  51.056
29465W        W21389  19.748  28.748  53.775
29466W        W21390  39.215   3.253  50.595
29467W        W21391  12.277  23.715  50.158
29468W        W21392  20.764   8.275  52.888
29469W        W21393  20.242  22.752  53.353
29470W        W21394  31.247  41.220  52.439
29471W        W21395  17.736   8.737  51.508
29472W        W21396   0.786   6.267  49.695
29473W        W21397  44.213  11.747  50.608
29474W        W21398   8.263  14.229  53.802
29475W        W21399  26.219  38.727  53.801
29476W        W21400  23.736  35.233  51.987
29477W        W21401  24.243  11.262  51.052
29478W        W21402   6.777  29.251  51.973
29479W        W21403  40.703  38.722  50.142
29480W        W21404  32.744  43.700  52.404
29481W        W21405   9.774  32.714  50.140
29482W        W21406  33.707  15.738  51.053
29483W        W21407  47.185  31.229  50.151
29484W        W21408  26.256  25.721  51.049
29485W        W21409   1.255  16.738  53.331
29486W        W21410  26.249  32.215  52.889
29487W        W21411   7.275   8.738  51.953
29488W        W21412  13.255  15.259  53.807
29489W        W21413   4.265   6.777  50.151
29490W        W21414   7.786   7.241  51.054
29491W        W21415  35.218  45.717  50.591
29492W        W21416   9.237  42.686  53.786
29493W        W21417  29.206  14.227  53.324
29494W        W21418  36.238  34.732  53.347
29495W        W21419  12.249  29.221  53.341
29496W        W21420  39.201  11.269  50.603
29497W        W21421  36.710  18.246  53.350
29498W        W21422  12.247  32.721  51.502
29499W        W21423  32.706  23.716  53.782
29500W        W21424   3.752   5.260  50.588
29501W        W21425  22.748  47.704  51.077
29502W        W21426  37.198  22.234  51.505
29503W        W21427  31.726  38.727  52.432
29504W        W21428   9.237  36.195  51.956
29505W        W21429  20.234   1.250  51.493
29506W        W21430   5.259  13.738  51.060
29507W        W21431   6.250  33.695  52.428
29508W        W21432   0.257   7.774  53.340
29509W        W21433  31.202  14.762  52.903
29510W        W21434  31.238   3.259  50.587
29511W        W21435   8.246  24.734  50.585
29512W        W21436  33.214   8.769  53.778
29513W        W21437  32.727   1.773  52.420
29514W        W21438  43.221  36.730  52.403
29515W        W21439  39.710   5.263  51.062
29516W        W21440  21.219  37.225  50.581
29517W        W21441  42.693  17.255  50.608
29518W        W21442  41.194  34.223  53.361
29519W        W21443  42.229  11.778  53.360
29520W        W21444  13.228  23.229  50.155
29521W        W21445  27.724  16.730  52.904
29522W        W21446   1.766  39.693  51.497
29523W        W21447   9.241  40.723  51.069
29524W        W21448   9.747  22.727  51.037
29525W        W21449  31.228   6.772  51.972
29526W        W21450  23.248  28.239  51.061
29527W        W21451  13.259   6.278  53.340
29528W        W21452  38.695  34.725  51.078
29529W        W21453  19.251   6.256  49.680
29530W        W21454  32.703  29.731  50.138
29531W        W21455  41.686  27.224  49.687
29532W        W21456  18.255  39.234  52.892
29533W        W21457  18.720   5.279  52.411
29534W        W21458  47.207  41.723  53.345
29535W        W21459  27.219  30.236  49.706
29536W        W21460   0.774  34.205  51.067
29537W        W21461  18.246   8.752  51.497
29538W        W21462  35.227  27.745  50.601
29539W        W21463  25.248  19.224  51.527
29540W        W21464  20.759  10.762  51.072
29541W        W21465  16.738  16.232  50.164
29542W        W21466  46.185  18.255  51.503
29543W        W21467   5.270   6.759  49.669
29544W        W21468   5.767  24.714  53.803
29545W        W21469  23.238  42.685  49.677
29546W        W21470  18.734  47.176  52.895
29547W        W21471   4.752   2.259  51.057
29548W        W21472  16.243   6.746  50.593
29549W        W21473  30.745  14.252  53.782
29550W        W21474  47.721  23.215  52.860
29551W        W21475   2.277  25.740  50.165
29552W        W21476  25.720  20.727  51.072
29553W        W21477   2.769  23.260  49.687
29554W        W21478  25.755  34.218  49.691
29555W        W21479   2.269  16.269  52.425
29556W        W21480  29.239  13.251  50.159
29557W        W21481   7.756  39.728  51.503
29558W        W21482   7.275  36.702  50.584
29559W        W21483  30.214   4.792  49.694
29560W        W21484  40.184  40.197  49.689
29561W        W21485  13.734  27.214  51.061
29562W        W21486  13.262  36.695  53.337
29563W        W21487  31.235  30.208  53.345
29564W        W21488  25.753  17.728  50.587
29565W        W21489  30.723  26.240  51.976
29566W        W21490  21.260  13.748  51.966
29567W        W21491  41.705  35.704  52.441
29568W        W21492  34.704  29.740  53.326
29569W        W21493  38.206  15.763  49.695
29570W        W21494  16.260  20.752  52.876
29571W        W21495   0.780  24.257  52.902
29572W        W21496  45.217  21.761  53.793
29573W        W21497  18.222  19.742  51.046
29574W        W21498  28.744  47.696  49.665
29575W        W21499   4.766  23.217  52.876
29576W        W21500  39.731  47.193  52.889
29577W        W21501  44.700   7.766  52.410
29578W        W21502  20.252  31.722  53.801
29579W        W21503   8.765  31.216  50.584
29580W        W21504  10.766   0.279  51.500
29581W        W21505  46.185  42.722  50.155
29582W        W21506  12.765  46.676  53.316
29583W        W21507  10.253  16.265  53.353
29584W        W21508   0.283  39.690  50.159
29585W        W21509  37.234   1.785  53.773
29586W        W21510   8.265  12.251  50.604
29587W        W21511  43.698  30.737  53.804
29588W        W21512  47.189   6.244  51.497
29589W        W21513  39.226  28.721  50.127
29590W        W21514  20.730  33.739  51.975
29591W        W21515  14.745  42.209  52.415
29592W        W21516   3.758  39.198  53.350
29593W        W21517  21.727  34.232  51.954
29594W        W21518  19.734  41.697  51.531
29595W        W21519   5.770  44.205  50.598
29596W        W21520  33.218  26.248  50.141
29597W        W21521  16.745   6.258  49.702
29598W        W21522  21.227  27.253  50.152
29599W        W21523  24.722  30.230  49.692
29600W        W21524   5.763  45.700  49.692
29601W        W21525  29.731  15.766  53.326
29602W        W21526  12.767  45.192  51.073
29603W        W21527   7.776   0.277  53.781
29604W        W21528  46.187   1.260  51.984
29605W        W21529  29.718  38.206  51.508
29606W        W21530  38.706  19.760  53.806
29607W        W21531  25.724  38.697  51.043
29608W        W21532  26.737   0.797  51.513
29609W        W21533  37.723  23.719  52.410
29610W        W21534  26.707  30.708  51.511
29611W        W21535  16.744  28.234  49.679
29612W        W21536  38.189   9.783  50.131
29613W        W21537  40.690  23.752  51.052
29614W        W21538  35.227  13.259  52.430
29615W        W21539   4.764   4.288  53.355
29616W        W21540  10.745  32.713  51.991
29617W        W21541  22.244  31.729  50.146
29618W        W21542  24.752  32.205  52.438
29619W        W21543   3.272  40.724  51.047
29620W        W21544  40.730  35.211  50.607
29621W        W21545  34.705  47.180  52.895
29622W        W21546  37.716  13.248  52.889
29623W        W21547  25.238  41.209  51.947
29624W        W21548  29.221  14.728  51.508
29625W        W21549  26.727  28.235  50.162
29626W        W21550  17.239  13.238  51.529
29627W        W21551  46.719   4.753  49.681
29628W        W21552  34.700   0.271  50.144
29629W        W21553  14.758  14.774  51.526
29630W        W21554  26.734  40.218  49.665
29631W        W21555  12.772   9.281  52.897
29632W        W21556  44.219  12.776  52.888
29633W        W21557  44.178  11.278  50.131
29634W        W21558  12.758   4.287  51.978
29635W        W21559  28.727  25.750  49.686
29636W        W21560  24.245  32.232  50.150
29637W        W21561  45.718  43.679  52.860
29638W        W21562  29.748  11.778  49.693
29639W        W21563  46.182  41.203  50.137
29640W        W21564  45.192  15.235  50.600
29641W        W21565  42.194  27.709  49.676
29642W        W21566  35.707  36.708  51.528
29643W        W21567   1.767  43.681  53.810
29644W        W21568  32.702  32.232  50.584
29645W        W21569  41.721   8.773  51.078
29646W        W21570  36.714  17.732  51.983
29647W        W21571  41.213  20.752  51.968
29648W        W21572  30.700  14.257  49.709
29649W        W21573  20.239  11.770  51.510
29650W        W21574  11.771  38.198  53.802
29651W        W21575  47.675  27.243  52.430
29652W        W21576  41.729  44.687  51.967
29653W        W21577  37.733  34.198  52.863
29654W        W21578  31.216  42.215  49.708
29655W        W21579   4.746  15.768  51.990
29656W        W21580  32.696  18.256  53.807
29657W        W21581  47.675   8.778  52.902
29658W        W21582  38.234   1.762  50.139
29659W        W21583  13.758  30.702  50.128
29660W        W21584  45.188   4.751  50.154
29661W        W21585  25.741  32.727  53.318
29662W        W21586  15.232   6.748  53.781
29663W        W21587  10.255  35.724  51.064
29664W        W21588  13.770  37.208  51.047
29665W        W21589  42.181  46.695  49.695
29666W        W21590  10.771  35.736  52.898
29667W        W21591   3.792  20.266  50.610
29668W        W21592  35.222   8.741  51.041
29669W        W21593  18.754  30.727  53.783
29670W        W21594  18.223  34.701  51.968
29671W        W21595  22.249  28.728  50.618
29672W        W21596   8.745  14.746  49.678
29673W        W21597  37.730   8.241  53.802
29674W        W21598  37.738  39.229  51.972
29675W        W21599   7.777  19.247  52.437
29676W        W21600  10.246  43.207  50.141
29677W        W21601  44.186  42.722  50.158
29678W        W21602  13.727  35.733  49.694
29679W        W21603  11.745  39.728  51.052
29680W        W21604  39.688  29.735  51.078
29681W        W21605  36.238   7.757  50.130
29682W        W21606  37.709  23.255  51.530
29683W        W21607  46.188  42.211  53.328
29684W        W21608  19.234  25.218  51.990
29685W        W21609  30.205  29.248  52.421
29686W        W21610  40.694  27.729  52.888
29687W        W21611  14.228   1.780  50.612
29688W        W21612  20.246   4.763  49.688
29689W        W21613  15.243  20.265  53.323
29690W        W21614  45.214  18.225  52.411
29691W        W21615   4.751  21.730  50.594
29692W        W21616  10.261  44.676  49.668
29693W        W21617   1.757   1.256  51.049
29694W        W21618   5.257  22.238  51.078
29695W        W21619   4.773   8.760  53.318
29696W        W21620  18.726  19.718  53.327
29697W        W21621  29.245   7.760  51.037
29698W        W21622  27.252  47.679  51.516
29699W        W21623   9.269  29.219  52.413
29700W        W21624  22.727  47.204  53.815
29701W        W21625  28.747  39.226  53.323
29702W        W21626   2.780  18.727  51.047
29703W        W21627  34.223  46.700  52.881
29704W        W21628  31.738  23.249  51.531
29705W        W21629  18.257   2.794  49.673
29706W        W21630  28.207  39.709  53.358
29707W        W21631  26.240  26.239  51.963
29708W        W21632  21.744  37.694  49.677
29709W        W21633   3.782  37.694  52.899
29710W        W21634  43.183  34.727  51.056
29711W        W21635  16.748  40.729  51.523
29712W        W21636   3.753  33.242  52.439
29713W        W21637   9.284  12.777  52.407
29714W        W21638  30.204   6.270  51.060
29715W        W21639  35.702  18.722  51.965
29716W        W21640   3.280  41.200  52.901
29717W        W21641  28.751  29.724  50.603
29718W        W21642  25.257  19.732  51.048
29719W        W21643   0.259  17.736  51.517
29720W        W21644  28.723  33.712  52.884
29721W        W21645   5.760  16.244  52.875
29722W        W21646  24.246   5.767  53.798
29723W        W21647  19.265  24.230  53.794
29724W        W21648  18.745  19.245  53.356
29725W        W21649   4.276  20.232  52.896
29726W        W21650  35.234  30.703  51.493
29727W        W21651  39.726  27.222  51.066
29728W        W21652  31.219   7.781  52.874
29729W        W21653  45.177   9.757  52.883
29730W        W21654  35.213  21.254  53.792
29731W        W21655   2.280  13.248  52.860
29732W        W21656  48.178   9.776  51.530
29733W        W21657  27.215  42.726  51.491
29734W        W21658  15.739  33.711  50.164
29735W        W21659  37.211   9.754  51.947
29736W        W21660  28.745  20.252  53.357
29737W        W21661   3.789   5.283  50.141
29738W        W21662  46.211  22.758  49.681
29739W        W21663  10.767  26.250  51.502
29740W        W21664  33.707   5.280  49.666
29741W        W21665  33.728   6.249  50.157
29742W        W21666   8.277  29.234  53.327
29743W        W21667  22.739   9.260  51.509
29744W        W21668  18.755  23.750  50.584
29745W        W21669  47.717  42.701  52.437
29746W        W21670  29.229   1.763  53.357
29747W        W21671  26.209  44.219  52.433
29748W        W21672  19.744   4.774  50.137
29749W        W21673   6.767   8.253  53.360
29750W        W21674  19.736  28.732  52.430
29751W        W21675  25.241  27.245  52.889
29752W        W21676  21.736  27.220  53.784
29753W        W21677  40.693  47.217  52.887
29754W        W21678  47.693  21.216  52.438
29755W        W21679  41.192  24.254  52.903
29756W        W21680  48.203  28.741  50.124
29757W        W21681  23.246  33.210  50.580
29758W        W21682  37.693  29.246  51.985
29759W        W21683  33.731  46.692  53.350
29760W        W21684   7.262  32.717  50.621
29761W        W21685  43.215  46.214  52.445
29762W        W21686  30.705  21.758  51.047
29763W        W21687  47.715  42.197  51.510
29764W        W21688  24.758  30.247  50.611
29765W        W21689  20.754  40.193  51.500
29766W        W21690  37.715  29.749  50.613
29767W        W21691   2.779  33.710  50.594
29768W        W21692  43.212  10.257  49.694
29769W        W21693  44.181  13.772  49.708
29770W        W21694  45.675  24.728  50.131
29771W        W21695  40.691  40.729  50.614
29772W        W21696  12.237  27.726  53.328
29773W        W21697  22.714  42.722  50.140
29774W        W21698  18.722  45.191  51.048
29775W        W21699   4.285  36.704  52.896
29776W        W21700  27.733  47.720  50.124
29777W        W21701  36.712  21.742  53.339
29778W        W21702  23.221  38.213  50.581
29779W        W21703   9.776  20.723  53.317
29780W        W21704   8.770  41.693  51.959
29781W        W21705  20.220  24.719  52.884
29782W        W21706  35.699  41.699  49.666
29783W        W21707   6.779  33.706  50.153
29784W        W21708  28.719  36.698  49.699
29785W        W21709   3.783  23.725  50.598
29786W        W21710  29.743   6.247  53.318
29787W        W21711  35.225   3.764  53.808
29788W        W21712  38.225  34.710  51.969
29789W        W21713  11.244  10.245  50.147
29790W        W21714   9.274  41.217  50.152
29791W        W21715  23.760  38.190  52.897
29792W        W21716   8.777  38.194  50.593
29793W        W21717  14.268  20.737  51.982
29794W        W21718   2.287  34.708  53.783
29795W        W21719  48.211  22.720  51.053
29796W        W21720  17.737  19.758  52.441
29797W        W21721  27.250  27.726  53.811
29798W        W21722  26.718   0.250  51.045
29799W        W21723  39.215   6.772  52.898
29800W        W21724  43.199  12.744  53.801
29801W        W21725   5.256   2.273  50.597
29802W        W21726   7.778  15.728  53.784
29803W        W21727  13.239  17.248  49.683
29804W        W21728   3.765  12.254  51.067
29805W        W21729  28.748   3.287  50.588
29806W        W21730  16.249  36.225  52.875
29807W        W21731  15.746  17.752  51.045
29808W        W21732  36.235  24.257  49.701
29809W        W21733  18.747   7.755  52.436
29810W        W21734  25.232  38.693  53.806
29811W        W21735  10.768  38.216  53.809
29812W        W21736  27.726  30.207  51.980
29813W        W21737  48.200  15.726  50.123
29814W        W21738  25.239  36.211  50.155
29815W        W21739  17.751  31.217  53.803
29816W        W21740   3.746   5.266  52.866
29817W        W21741   1.264  24.259  52.875
29818W        W21742  13.767  41.691  51.964
29819W        W21743   3.251  31.216  52.877
29820W        W21744   3.260   5.764  51.503
29821W        W21745   0.264  11.746  50.609
29822W        W21746  28.729  11.747  53.323
29823W        W21747  41.718  41.230  53.319
29824W        W21748  33.730  20.263  51.059
29825W        W21749  42.703  25.723  49.674
29826W        W21750  15.254   3.757  52.436
29827W        W21751   4.266  40.219  50.143
29828W        W21752  21.238  42.695  50.128
29829W        W21753  46.187  20.263  50.582
29830W        W21754  32.709  38.234  52.870
29831W        W21755   3.285  17.240  53.813
29832W        W21756   0.271  31.732  53.814
29833W        W21757  23.213   8.752  53.336
29834W        W21758  14.272  31.724  52.889
29835W        W21759  43.181  43.704  52.902
29836W        W21760  35.199  20.256  51.962
29837W        W21761   2.266  30.709  53.355
29838W        W21762  10.732  21.239  49.681
29839W        W21763  47.687  39.729  51.971
29840W        W21764   5.272  40.699  53.351
29841W        W21765  33.202  33.233  51.501
29842W        W21766  21.757  23.250  53.353
29843W        W21767  45.189   8.757  53.319
29844W        W21768  14.747  16.262  49.666
29845W        W21769  27.708  27.710  50.613
29846W        W21770  10.259  46.198  52.877
29847W        W21771  14.738   6.767  52.420
29848W        W21772   1.248  48.199  51.975
29849W        W21773   3.763  32.203  49.696
29850W        W21774  28.213  44.678  51.498
29851W        W21775  45.705  13.236  52.443
29852W        W21776  37.713  46.223  51.520
29853W        W21777  43.202  21.758  52.441
29854W        W21778  36.233  38.198  51.990
29855W        W21779  47.192  34.722  51.991
29856W        W21780  43.715  26.730  51.522
29857W        W21781  23.238  47.696  52.406
29858W        W21782  46.712  40.724  53.361
29859W        W21783  45.689   4.262  51.951
29860W        W21784  15.734   9.255  50.123
29861W        W21785  19.766   9.249  52.411
29862W        W21786  21.764  47.195  51.034
29863W        W21787  38.189  33.723  51.493
29864W        W21788  29.727   5.269  53.773
29865W        W21789   5.268   5.270  51.501
29866W        W21790  10.252  13.266  50.615
29867W        W21791  38.736  14.747  52.878
29868W        W21792  43.713   0.783  53.802
29869W        W21793  35.717  42.717  51.949
29870W        W21794   6.277  28.703  53.816
29871W        W21795  37.716  35.717  52.423
29872W        W21796  36.214  32.727  50.165
29873W        W21797  21.252  24.223  51.509
29874W        W21798  44.703  29.229  51.060
29875W        W21799  39.721  26.215  52.864
29876W        W21800  19.723  30.241  51.947
29877W        W21801  26.726  29.709  50.159
29878W        W21802  21.234  35.216  51.038
29879W        W21803   4.272  15.739  52.406
29880W        W21804  17.739  13.766  49.686
29881W        W21805  39.217  14.227  51.963
29882W        W21806  19.220  41.226  51.523
29883W        W21807  14.743  13.236  52.438
29884W        W21808  24.249   0.269  49.666
29885W        W21809  21.715  45.684  51.984
29886W        W21810   8.241  15.725  52.876
29887W        W21811  31.704  46.714  53.352
29888W        W21812  17.232   0.795  53.331
29889W        W21813  38.707  34.235  52.448
29890W        W21814  44.179  27.246  52.879
29891W        W21815  27.252  14.745  50.125
29892W        W21816  18.263  16.258  52.429
29893W        W21817  30.242  34.732  49.694
29894W        W21818  11.731  15.250  50.163
29895W        W21819  46.681   4.272  53.785
29896W        W21820  19.738  47.206  51.984
29897W        W21821  42.201  18.250  53.335
29898W        W21822  36.714  18.768  50.138
29899W        W21823  13.235   5.747  50.144
29900W        W21824  28.252  18.245  52.419
29901W        W21825   1.291  34.743  49.686
29902W        W21826  17.768   4.247  53.814
29903W        W21827  27.254   0.276  50.602
29904W        W21828  22.253  32.232  52.444
29905W        W21829  25.725  30.205  53.815
29906W        W21830  45.708  23.732  52.892
29907W        W21831   3.767  18.762  51.050
29908W        W21832  15.268  30.233  51.494
29909W        W21833  20.237  28.227  51.946
29910W        W21834  45.705   9.253  50.604
29911W        W21835  47.703   9.267  51.520
29912W        W21836  21.717  22.754  51.037
29913W        W21837  47.720   0.771  52.902
29914W        W21838  11.778   6.761  51.039
29915W        W21839  28.742  26.248  51.074
29916W        W21840  36.727   3.745  49.693
29917W        W21841  18.739  47.697  51.039
29918W        W21842   6.287  39.221  51.508
29919W        W21843   9.275  30.206  50.143
29920W        W21844  11.756  32.715  52.421
29921W        W21845  30.702  44.709  51.508
29922W        W21846  42.204  29.725  50.618
29923W        W21847  43.189  48.212  52.862
29924W        W21848  31.227  24.753  53.358
29925W        W21849  26.250  29.206  51.041
29926W        W21850  14.744   4.264  50.604
29927W        W21851  38.699  20.741  52.870
29928W        W21852  18.265   9.250  53.779
29929W        W21853  33.701  16.238  51.048
29930W        W21854  16.272  22.262  50.127
29931W        W21855   2.752  32.706  51.039
29932W        W21856   6.764   2.262  50.602
29933W        W21857  11.273  45.720  53.803
29934W        W21858  32.228  31.715  53.340
29935W        W21859  37.732  42.198  51.055
29936W        W21860  22.245  21.261  49.672
29937W        W21861  21.265  46.711  51.034
29938W        W21862  29.707  27.214  53.813
29939W        W21863  38.710  20.261  51.069
29940W        W21864   5.262  42.202  52.431
29941W        W21865  31.223   1.281  50.156
29942W        W21866  48.219  21.726  52.404
29943W        W21867   7.242  17.768  52.434
29944W        W21868  43.179  25.729  52.890
29945W        W21869  43.189  41.221  53.806
29946W        W21870  22.725  48.213  51.035
29947W        W21871  30.709  18.240  51.951
29948W        W21872  12.275  25.739  49.708
29949W        W21873  30.210  37.699  51.517
29950W        W21874  38.200  13.233  53.796
29951W        W21875  24.748  20.745  53.778
29952W        W21876   1.275  45.176  51.039
29953W        W21877   4.786   4.276  50.615
29954W        W21878  44.188  41.727  51.947
29955W        W21879   1.749  13.756  49.680
29956W        W21880   8.753  40.714  51.954
29957W        W21881  42.206  19.268  53.804
29958W        W21882  20.233  14.240  51.969
29959W        W21883   0.784  26.240  51.493
29960W        W21884   8.260  37.200  51.516
29961W        W21885   0.256  23.258  53.348
29962W        W21886   7.256  29.237  51.981
29963W        W21887  13.247  11.254  51.493
29964W        W21888  41.230  41.710  50.614
29965W        W21889  47.697  34.731  49.678
29966W        W21890  42.192  31.203  52.885
29967W        W21891   8.766  39.217  53.359
29968W        W21892  31.710  13.258  53.351
29969W        W21893  28.239  18.231  49.687
29970W        W21894  18.739  46.695  53.774
29971W        W21895  16.750  14.773  50.615
29972W        W21896  37.707  18.233  52.892
29973W        W21897  34.702  40.197  49.708
29974W        W21898   3.780  33.235  49.695
29975W        W21899  13.744  35.221  51.948
29976W        W21900   8.276   3.256  50.134
29977W        W21901   1.761  19.726  52.885
29978W        W21902  47.690  48.218  51.509
29979W        W21903  15.261  19.266  50.135
29980W        W21904  43.206   0.278  51.053
29981W        W21905  17.754  42.724  51.513
29982W        W21906  24.247   1.792  51.951
29983W        W21907  19.261  34.696  52.416
29984W        W21908  19.254  13.766  51.499
29985W        W21909  15.261  25.216  50.602
29986W        W21910  48.177  15.231  53.810
29987W        W21911  40.684   5.758  51.523
29988W        W21912  41.695  13.262  50.578
29989W        W21913  47.188  29.214  51.041
29990W        W21914   0.791  23.238  51.072
29991W        W21915  15.749   3.293  53.808
29992W        W21916  34.224  14.232  52.878
29993W        W21917  14.242  38.704  53.805
29994W        W21918  48.192  19.732  53.335
29995W        W21919  21.751  45.711  53.337
29996W        W21920  48.182  44.205  49.681
29997W        W21921  47.199  40.731  50.597
29998W        W21922  11.755  35.230  50.139
29999W        W21923  42.710   9.273  53.327
30000W        W21924   9.255  20.237  52.863
30001W        W21925  25.725  45.707  50.598
30002W        W21926  36.723  22.725  52.427
30003W        W21927  15.762  21.217  53.781
30004W        W21928  15.748  37.224  52.862
30005W        W21929  22.746  43.210  50.582
30006W        W21930  46.185  44.682  53.349
30007W        W21931  37.709  46.697  51.533
30008W        W21932  10.754  22.756  50.611
30009W        W21933   8.256  11.246  51.963
30010W        W21934  36.203  10.769  51.524
30011W        W21935  40.724  41.696  50.597
30012W        W21936  37.723  48.189  51.964
30013W        W21937  22.261  19.746  51.071
30014W        W21938  19.759  18.720  50.150
30015W        W21939  45.223  24.254  52.902
30016W        W21940  29.225  33.224  49.704
30017W        W21941  38.711  15.240  52.880
30018W        W21942  17.225   7.240  51.951
30019W        W21943  40.189  47.216  52.421
30020W        W21944  34.234  43.685  51.970
30021W        W21945  34.708   2.758  52.436
30022W        W21946  12.739  14.760  50.611
30023W        W21947  19.721  20.261  52.419
30024W        W21948  38.199  18.732  49.695
30025W        W21949  17.724  45.200  51.051
30026W        W21950  10.779   7.741  49.679
30027W        W21951  23.750  45.184  53.348
30028W        W21952  30.714  37.196  50.615
30029W        W21953  17.250   0.797  53.795
30030W        W21954   7.285   1.766  52.863
30031W        W21955   2.279  39.731  52.873
30032W        W21956  17.267  30.211  50.608
30033W        W21957  31.733  30.738  51.513
30034W        W21958  47.675  23.726  53.325
30035W        W21959  27.212  46.185  50.162
30036W        W21960   0.298  12.246  52.442
30037W        W21961  17.232  41.709  50.143
30038W        W21962  44.205  15.228  51.079
30039W        W21963   9.258   5.744  49.704
30040W        W21964   2.257  12.272  52.412
30041W        W21965  32.741   7.770  51.493
30042W        W21966   3.252  21.232  53.788
30043W        W21967  22.732  10.271  51.046
30044W        W21968  34.709  37.230  52.896
30045W        W21969   6.276  25.239  49.698
30046W        W21970  28.734  39.231  51.057
30047W        W21971  34.706  45.194  51.513
30048W        W21972   8.240  41.203  50.161
30049W        W21973  23.232  46.223  51.041
30050W        W21974  38.715  10.268  53.337
30051W        W21975  22.224  21.743  50.121
30052W        W21976  32.717  30.722  50.596
30053W        W21977   6.247  11.743  52.875
30054W        W21978  15.766  45.716  50.162
30055W        W21979  43.220  32.734  51.501
30056W        W21980  10.244  40.683  52.419
30057W        W21981  22.738  24.250  51.073
30058W        W21982  20.254  46.722  53.802
30059W        W21983   8.757  28.737  53.347
30060W        W21984   8.757  20.749  52.867
30061W        W21985  30.228   9.247  50.128
30062W        W21986   3.775  31.219  51.983
30063W        W21987  23.256  28.714  52.870
30064W        W21988  12.776  25.256  50.133
30065W        W21989  19.227  14.244  52.433
30066W        W21990  42.717  32.706  52.879
30067W        W21991  20.245  17.257  49.665
30068W        W21992  17.224  21.257  49.681
30069W        W21993  13.261  33.218  52.866
30070W        W21994   6.240  43.725  51.055
30071W        W21995   6.758   0.796  51.951
30072W        W21996   5.757  10.775  52.440
30073W        W21997  10.758   5.770  50.162
30074W        W21998  29.709  34.741  53.339
30075W        W21999  14.251  32.744  50.155
30076W        W22000  29.219   6.772  52.411
30077W        W22001  29.734  21.221  52.901
30078W        W22002  14.745  32.721  51.504
30079W        W22003  19.764  22.729  50.140
30080W        W22004  37.205  35.734  49.691
30081W        W22005  42.713  18.242  52.427
30082W        W22006  13.243  38.191  49.702
30083W        W22007   5.787  42.210  53.348
30084W        W22008  41.189   7.766  50.600
30085W        W22009   5.747   3.276  50.621
30086W        W22010   5.259  36.203  49.679
30087W        W22011  18.750  25.252  51.516
30088W        W22012  32.706  19.223  51.517
30089W        W22013  28.251   9.236  52.885
30090W        W22014  15.249  36.234  50.158
30091W        W22015  39.228  37.693  52.877
30092W        W22016  16.770   9.273  50.586
30093W        W22017  17.233  38.226  53.319
30094W        W22018  11.265  42.183  51.949
30095W        W22019   0.785  28.237  51.961
30096W        W22020  21.216   1.284  49.682
30097W        W22021  44.208  12.278  49.667
30098W        W22022  34.214  24.255  53.815
30099W        W22023  41.216  28.245  53.778
30100W        W22024  36.730  30.246  51.034
30101W        W22025  23.257  11.235  50.600
30102W        W22026  46.223  42.194  51.960
30103W        W22027  14.737  44.684  51.041
30104W        W22028  35.216  46.177  53.794
30105W        W22029   6.245  38.207  49.698
30106W        W22030  45.197  29.706  53.330
30107W        W22031  33.221  36.732  51.070
30108W        W22032  43.679  12.251  52.416
30109W        W22033  26.738  29.730  52.865
30110W        W22034  45.704  36.223  50.616
30111W        W22035  19.230  38.231  51.063
30112W        W22036  26.727  38.733  51.969
30113W        W22037  30.726   0.790  51.076
30114W        W22038  21.254  21.737  52.887
30115W        W22039  17.262  41.182  53.775
30116W        W22040  21.216  22.731  50.128
30117W        W22041  15.253  31.206  51.055
30118W        W22042  43.702  34.231  50.142
30119W        W22043  10.739  21.239  53.319
30120W        W22044  42.724  35.724  50.602
30121W        W22045  46.190  27.706  52.433
30122W        W22046   3.787  46.223  51.965
30123W        W22047  39.217  15.245  51.974
30124W        W22048  22.215   4.788  49.692
30125W        W22049  30.248   4.764  53.774
30126W        W22050  20.740  38.195  51.512
30127W        W22051  43.726  12.272  51.041
30128W        W22052  46.195  34.207  53.320
30129W        W22053  23.760  45.696  52.426
30130W        W22054  45.220  34.710  53.817
30131W        W22055  11.279  30.222  52.420
30132W        W22056  14.242  11.280  51.520
30133W        W22057  22.726  42.222  53.783
30134W        W22058  46.214  29.721  51.038
30135W        W22059   9.743  32.711  49.674
30136W        W22060  21.257  32.727  50.138
30137W        W22061   8.267  36.209  52.410
30138W        W22062   2.257  15.766  53.348
30139W        W22063  37.717  37.229  53.360
30140W        W22064  18.751  43.207  51.074
30141W        W22065  47.689   8.272  51.039
30142W        W22066  31.211   8.756  51.968
30143W        W22067  29.744  14.268  50.149
30144W        W22068  29.706  44.714  51.519
30145W        W22069  47.707  24.734  52.878
30146W        W22070   9.753  28.742  52.900
30147W        W22071  15.235  25.226  51.527
30148W        W22072  44.707  35.215  49.706
30149W        W22073  15.272  16.239  53.793
30150W        W22074  17.226   4.268  53.360
30151W        W22075  29.716  33.731  49.676
30152W        W22076  35.212  22.242  52.405
30153W        W22077  24.210  21.719  52.411
30154W        W22078  43.726  31.248  50.147
30155W        W22079  42.187  39.687  51.976
30156W        W22080  20.730  42.714  50.599
30157W        W22081   7.749  21.247  50.158
30158W        W22082  46.715  42.224  50.156
30159W        W22083  42.196  35.197  52.872
30160W        W22084   6.272  41.187  49.671
30161W        W22085  13.254  14.757  51.534
30162W        W22086  13.729  15.232  50.137
30163W        W22087   7.265  41.697  50.126
30164W        W22088  33.228  19.232  52.447
30165W        W22089  14.261  26.234  53.786
30166W        W22090  11.268   0.754  50.132
30167W        W22091  44.678  29.205  53.338
30168W        W22092  20.733  46.191  53.804
30169W        W22093  37.238  38.688  50.583
30170W        W22094   2.793  13.771  49.671
30171W        W22095  29.702  25.211  53.811
30172W        W22096   0.275   9.751  52.441
30173W        W22097   4.262  17.235  50.615
30174W        W22098  43.717  12.239  51.500
30175W        W22099   4.258  41.716  53.782
30176W        W22100   5.776   8.262  50.137
30177W        W22101   4.251  43.697  51.077
30178W        W22102  46.187   5.251  51.493
30179W        W22103   6.744  25.221  52.867
30180W        W22104  45.180  48.174  51.510
30181W        W22105  35.694  42.189  51.951
30182W        W22106   2.284  40.730  50.585
30183W        W22107   8.249  29.215  51.499
30184W        W22108  14.226   9.770  53.793
30185W        W22109  30.729  20.729  52.447
30186W        W22110   4.743  10.781  52.418
30187W        W22111  16.226  37.695  51.530
30188W        W22112  34.210  32.209  51.984
30189W        W22113  47.191  12.751  51.508
30190W        W22114   2.748  46.216  50.164
30191W        W22115  26.255   5.748  52.420
30192W        W22116   2.289  40.696  51.046
30193W        W22117   2.281   8.272  49.682
30194W        W22118  37.721  29.715  52.404
30195W        W22119  15.772  10.767  52.436
30196W        W22120  22.754  33.704  53.796
30197W        W22121  10.256  43.185  51.050
30198W        W22122  20.261   1.757  52.861
30199W        W22123  15.765   0.770  52.868
30200W        W22124  20.224  11.262  49.694
30201W        W22125   6.261  27.732  52.895
30202W        W22126  15.739  43.714  52.405
30203W        W22127  17.754  44.213  53.353
30204W        W22128  13.750  10.234  53.815
30205W        W22129  28.719   5.750  51.500
30206W        W22130  42.184  16.736  50.145
30207W        W22131  45.693  43.698  50.609
30208W        W22132  46.689  28.736  50.583
30209W        W22133  41.187   1.292  50.144
30210W        W22134  44.717  47.173  49.684
30211W        W22135  13.731   8.252  53.804
30212W        W22136  47.721  37.206  51.490
30213W        W22137  16.771  31.722  49.702
30214W        W22138  43.703   6.772  53.354
30215W        W22139  10.259   0.269  50.618
30216W        W22140  23.241  12.232  51.948
30217W        W22141   2.752  25.747  53.780
30218W        W22142   2.275  10.760  51.522
30219W        W22143  32.206  16.267  53.809
30220W        W22144  28.238  18.743  51.986
30221W        W22145  24.730  16.763  49.694
30222W        W22146  18.755  16.770  51.512
30223W        W22147  42.226  47.695  51.950
30224W        W22148  13.766  46.216  52.874
30225W        W22149  15.768  32.724  50.622
30226W        W22150  25.730   1.777  52.877
30227W        W22151  28.751   6.774  50.126
30228W        W22152  16.732  44.181  52.886
30229W        W22153  28.715  47.179  50.588
30230W        W22154  45.188  29.245  50.130
30231W        W22155  36.207   6.784  53.320
30232W        W22156  25.245  19.252  53.774
30233W        W22157  24.750  31.727  49.699
30234W        W22158  33.735  36.200  53.793
30235W        W22159  17.255  37.735  50.138
30236W        W22160  35.696   4.755  49.668
30237W        W22161  11.257  17.749  51.503
30238W        W22162  10.271  15.250  53.808
30239W        W22163  40.216  40.731  52.422
30240W        W22164  44.680  16.241  52.884
30241W        W22165  14.227  12.273  49.684
30242W        W22166  27.749  10.242  51.959
30243W        W22167  21.231  28.735  51.983
30244W        W22168  13.254   6.254  50.618
30245W        W22169  44.204   8.278  51.990
30246W        W22170  14.736  39.188  50.158
30247W        W22171  12.733  34.720  51.515
30248W        W22172   9.259  23.728  50.600
30249W        W22173  14.753  25.257  51.963
30250W        W22174  20.738  39.718  50.610
30251W        W22175   6.287   6.743  50.616
30252W        W22176  44.180  25.245  49.672
30253W        W22177  29.727  31.721  52.443
30254W        W22178  34.240  39.223  53.355
30255W        W22179  19.257  22.263  49.696
30256W        W22180   7.772  17.259  53.339
30257W        W22181  37.714   5.769  50.619
30258W        W22182  33.205  18.721  51.989
30259W        W22183  42.718   7.262  51.519
30260W        W22184  32.702  37.230  51.064
30261W        W22185  38.704   9.774  50.135
30262W        W22186  40.695  45.718  51.969
30263W        W22187  33.239   6.788  49.693
30264W        W22188  40.232  34.716  50.138
30265W        W22189  11.748  22.744  51.972
30266W        W22190  22.258  21.215  53.321
30267W        W22191   7.276   1.758  52.447
30268W        W22192   3.764  22.259  50.604
30269W        W22193  47.194  31.717  53.810
30270W        W22194  38.707  39.708  51.044
30271W        W22195  39.204  44.193  53.353
30272W        W22196  45.682   1.767  51.075
30273W        W22197  15.769  39.690  49.697
30274W        W22198  43.201  27.247  50.620
30275W        W22199  18.267  12.765  51.962
30276W        W22200  18.247  24.745  51.493
30277W        W22201  42.218  10.775  53.784
30278W        W22202  15.250  29.723  50.159
30279W        W22203  36.734  33.209  51.077
30280W        W22204  33.235  29.221  51.052
30281W        W22205   5.246  41.689  52.416
30282W        W22206  27.707  42.195  53.791
30283W        W22207  26.230  44.677  53.809
30284W        W22208  21.737  35.198  52.901
30285W        W22209  14.762  21.256  50.611
30286W        W22210  30.744  34.242  50.128
30287W        W22211  47.198   4.283  52.873
30288W        W22212   2.293  31.201  50.159
30289W        W22213  37.710   3.249  53.340
30290W        W22214   1.775   6.768  51.505
30291W        W22215  12.272  17.769  53.324
30292W        W22216  18.256  22.232  52.869
30293W        W22217  14.270  30.201  51.982
30294W        W22218  12.278   4.280  51.045
30295W        W22219  16.245  13.746  53.338
30296W        W22220  30.221   6.277  53.352
30297W        W22221   7.249  41.191  51.493
30298W        W22222  40.221  47.194  52.883
30299W        W22223  31.737  21.762  50.145
30300W        W22224  34.206  29.223  53.796
30301W        W22225  44.225  24.744  52.866
30302W        W22226  25.233  23.259  53.344
30303W        W22227  47.700  10.268  53.810
30304W        W22228  29.724   3.761  50.611
30305W        W22229  29.239  48.179  53.798
30306W        W22230  44.183  21.740  50.165
30307W        W22231  35.735   6.289  51.973
30308W        W22232  28.750   4.773  51.948
30309W        W22233  23.721  25.724  49.681
30310W        W22234   9.780   7.278  51.969
30311W        W22235   1.283  43.723  53.348
30312W        W22236  27.243   2.271  53.808
30313W        W22237  11.251  21.751  51.524
30314W        W22238  10.277  10.234  51.495
30315W        W22239  19.763  16.770  51.976
30316W        W22240   2.771  36.216  51.063
30317W        W22241  22.715   7.278  51.036
30318W        W22242  16.744  34.712  52.872
30319W        W22243  11.742  42.215  52.423
30320W        W22244  20.236  43.223  51.055
30321W        W22245  10.764  14.730  49.672
30322W        W22246  43.701  44.688  50.161
30323W        W22247  38.236  25.256  52.414
30324W        W22248   6.781  24.744  49.699
30325W        W22249  28.704  33.225  51.038
30326W        W22250   3.253  28.740  51.040
30327W        W22251  17.752  13.275  52.859
30328W        W22252  33.202   9.249  52.405
30329W        W22253  31.710  38.698  50.140
30330W        W22254  41.688  41.707  50.599
30331W        W22255   2.269  37.217  53.793
30332W        W22256   8.752  36.718  52.429
30333W        W22257  21.718   6.248  49.672
30334W        W22258  13.265  30.716  50.142
30335W        W22259  18.768  22.754  50.143
30336W        W22260  16.756   1.787  49.675
30337W        W22261  44.200   0.771  51.991
30338W        W22262  11.265  15.246  53.807
30339W        W22263  45.687  29.734  52.872
30340W        W22264  24.732  23.260  50.578
30341W        W22265  27.215   2.264  51.057
30342W        W22266  19.751  25.724  52.892
30343W        W22267   9.253   6.251  49.689
30344W        W22268  25.716  23.725  53.778
30345W        W22269  45.717   2.765  53.343
30346W        W22270  15.767  17.266  49.706
30347W        W22271  41.216  32.720  50.163
30348W        W22272  19.226   9.260  53.337
30349W        W22273  16.231   1.791  51.050
30350W        W22274  32.222  18.248  51.044
30351W        W22275  32.726  12.738  51.529
30352W        W22276   7.256  21.248  51.513
30353W        W22277  36.202  13.774  53.343
30354W        W22278  36.697  43.712  53.799
30355W        W22279  24.212  32.738  51.056
30356W        W22280   7.242  27.706  49.683
30357W        W22281  41.185  37.233  53.328
30358W        W22282  36.200  30.226  53.329
30359W        W22283   2.259  26.744  52.863
30360W        W22284   5.762  23.225  53.317
30361W        W22285  19.724  14.763  52.897
30362W        W22286  32.713  28.735  52.430
30363W        W22287  25.720  12.258  51.958
30364W        W22288  47.216   4.258  50.580
30365W        W22289  28.724  22.216  53.321
30366W        W22290  44.723  18.725  50.137
30367W        W22291  12.772  34.734  52.430
30368W        W22292  26.744  41.195  51.983
30369W        W22293  34.742  15.240  51.041
30370W        W22294  13.260  46.195  51.072
30371W        W22295   6.246   5.278  51.073
30372W        W22296  11.241  41.192  51.495
30373W        W22297   4.260   7.756  51.505
30374W        W22298  29.213  36.724  52.445
30375W        W22299  23.213  11.778  53.323
30376W        W22300  13.767   4.277  53.810
30377W        W22301  30.232  39.686  51.518
30378W        W22302  15.232  33.228  52.879
30379W        W22303  13.749  21.234  53.335
30380W        W22304  31.706  33.722  52.438
30381W        W22305   7.744   8.783  53.792
30382W        W22306  15.744  27.740  50.613
30383W        W22307  20.752  35.712  50.166
30384W        W22308   7.750  17.721  53.780
30385W        W22309  33.725   1.753  50.141
30386W        W22310  10.748  24.245  51.037
30387W        W22311   0.275   2.746  51.529
30388W        W22312  16.740  28.708  52.409
30389W        W22313   5.282  38.709  51.946
30390W        W22314  24.733  37.234  50.590
30391W        W22315   0.267  44.211  51.049
30392W        W22316  34.243  13.731  50.615
30393W        W22317   1.293  37.719  51.948
30394W        W22318  43.679  45.181  51.524
30395W        W22319  48.175   1.757  51.532
30396W        W22320  30.211  43.182  51.959
30397W        W22321  31.207  12.768  53.335
30398W        W22322  43.710  19.240  53.351
30399W        W22323  14.754  16.753  50.609
30400W        W22324   3.764  17.232  53.349
30401W        W22325  20.220   4.259  51.513
30402W        W22326  29.245   5.263  51.043
30403W        W22327  11.775   1.783  49.705
30404W        W22328  36.210  23.212  51.490
30405W        W22329  11.762  17.262  51.534
30406W        W22330  44.210  24.248  51.992
30407W        W22331  33.711   8.256  49.692
30408W        W22332  27.724  15.251  53.779
30409W        W22333  19.763   6.278  51.037
30410W        W22334  11.779  29.738  50.136
30411W        W22335  41.721  21.243  51.494
30412W        W22336  13.240   7.749  52.865
30413W        W22337  43.678  33.717  52.405
30414W        W22338   2.295  31.235  50.584
30415W        W22339  40.218   1.283  51.063
30416W        W22340  48.196  48.209  51.039
30417W        W22341  24.739  24.228  51.055
30418W        W22342   3.278  46.690  50.580
30419W        W22343  13.734  15.227  53.347
30420W        W22344  43.208  41.227  50.164
30421W        W22345  22.716  29.703  51.964
30422W        W22346  18.767  24.246  50.583
30423W        W22347   7.740  38.717  51.532
30424W        W22348   6.776   1.795  51.519
30425W        W22349  20.221  43.715  51.051
30426W        W22350  21.727  32.214  53.322
30427W        W22351   9.746  38.692  50.608
30428W        W22352  25.715  17.748  51.512
30429W        W22353   7.783  41.227  53.329
30430W        W22354  44.691   2.278  53.361
30431W        W22355  44.214   8.264  50.621
30432W        W22356   9.737   2.269  49.671
30433W        W22357  35.240   3.784  51.972
30434W        W22358  45.692  28.239  53.780
30435W        W22359  28.213  43.714  52.403
30436W        W22360   8.250   7.259  51.983
30437W        W22361  40.192  24.753  50.160
30438W        W22362  31.214  22.250  51.529
30439W        W22363  43.215  13.761  53.323
30440W        W22364  16.257  16.772  53.328
30441W        W22365  11.767  27.214  52.412
30442W        W22366  27.243  37.712  49.678
30443W        W22367  31.248  44.698  49.677
30444W        W22368  16.727  14.245  53.797
30445W        W22369   7.280  29.216  52.872
30446W        W22370  35.211  37.208  49.706
30447W        W22371  14.767  31.227  51.494
30448W        W22372  25.750  39.205  50.125
30449W        W22373  14.257  16.762  53.812
30450W        W22374  13.241  16.229  51.971
30451W        W22375  15.726   0.256  50.141
30452W        W22376  29.735  11.774  50.161
30453W        W22377  37.698   1.793  53.780
30454W        W22378  45.193  48.180  51.991
30455W        W22379  27.245  18.722  49.705
30456W        W22380  31.745  38.204  51.951
30457W        W22381  29.232  10.741  53.346
30458W        W22382  30.720  43.696  53.814
30459W        W22383  15.759  10.243  51.990
30460W        W22384  17.764  33.710  50.611
30461W        W22385   4.768  31.740  49.676
30462W        W22386  10.741  14.243  53.772
30463W        W22387   7.779  45.719  53.787
30464W        W22388  31.730  28.214  52.888
30465W        W22389  33.731  13.734  53.806
30466W        W22390  24.719  47.681  51.970
30467W        W22391  22.250  12.748  50.592
30468W        W22392  46.679  35.218  51.979
30469W        W22393   6.742  35.206  52.435
30470W        W22394  15.228  35.236  51.065
30471W        W22395  24.714  20.749  50.134
30472W        W22396   0.256  37.234  50.134
30473W        W22397  22.223  34.707  51.047
30474W        W22398  45.718  37.227  52.899
30475W        W22399  17.761  20.261  52.896
30476W        W22400  18.257  29.737  49.682
30477W        W22401  33.713  25.256  49.694
30478W        W22402  46.196  28.208  53.335
30479W        W22403  44.676  34.706  53.808
30480W        W22404  27.226  12.747  51.519
30481W        W22405   0.756  25.236  53.334
30482W        W22406  20.249  30.731  49.689
30483W        W22407   8.278  43.701  51.492
30484W        W22408  30.723  36.729  52.865
30485W        W22409  15.231  46.680  50.155
30486W        W22410  16.758  47.187  50.591
30487W        W22411  37.203   6.760  50.580
30488W        W22412   2.266  42.716  50.620
30489W        W22413  38.213  13.234  51.061
30490W        W22414  17.764  47.191  51.053
30491W        W22415   5.278  41.228  50.585
30492W        W22416  37.730  33.737  52.406
30493W        W22417  14.255  31.202  53.802
30494W        W22418  45.688  26.745  53.320
30495W        W22419  33.210  11.777  52.414
30496W        W22420  19.729  36.228  52.891
30497W        W22421  41.724   0.275  50.131
30498W        W22422   2.287  39.709  51.498
30499W        W22423   7.754   8.271  50.597
30500W        W22424  12.761  45.683  52.885
30501W        W22425  21.752  29.209  51.490
30502W        W22426  32.710  39.689  52.870
30503W        W22427  33.214  26.748  52.866
30504W        W22428  33.242  15.248  53.803
30505W        W22429  26.722  44.716  52.869
30506W        W22430  20.753  23.733  50.131
30507W        W22431   4.755  31.210  50.580
30508W        W22432   5.774   9.783  53.814
30509W        W22433  13.231  27.221  52.412
30510W        W22434  36.724  12.280  52.891
30511W        W22435   9.251  20.733  51.511
30512W        W22436  32.731  31.233  50.153
30513W        W22437  12.235  45.181  53.793
30514W        W22438  39.224  48.216  51.965
30515W        W22439   3.274  33.223  52.905
30516W        W22440   5.248  15.742  50.136
30517W        W22441  22.730  38.715  51.505
30518W        W22442  39.716  18.263  51.047
30519W        W22443   9.757  42.220  49.695
30520W        W22444  46.716  20.263  51.959
30521W        W22445  41.232  43.719  51.047
30522W        W22446  15.265  10.273  52.431
30523W        W22447   8.742  44.677  53.777
30524W        W22448  27.723   5.790  51.962
30525W        W22449  15.725  17.755  50.140
30526W        W22450  46.716  14.229  52.870
30527W        W22451   5.767  29.741  51.060
30528W        W22452   1.782  31.245  53.341
30529W        W22453  22.729  23.737  50.163
30530W        W22454  40.222  39.721  52.870
30531W        W22455   4.252   3.265  51.045
30532W        W22456   3.293  44.724  49.695
30533W        W22457  25.709  41.209  51.988
30534W        W22458  40.729  38.209  51.968
30535W        W22459   9.746   4.758  51.490
30536W        W22460   0.298  39.212  50.619
30537W        W22461  46.196  30.218  51.962
30538W        W22462  46.703   3.769  52.407
30539W        W22463  26.724  17.728  50.159
30540W        W22464  22.740  30.201  51.515
30541W        W22465  23.711  29.205  51.063
30542W        W22466  15.751  19.238  49.699
30543W        W22467  19.752   0.798  51.963
30544W        W22468  29.230  24.226  49.703
30545W        W22469  24.251  26.718  49.691
30546W        W22470  36.723  24.718  52.898
30547W        W22471  31.698  21.729  51.492
30548W        W22472  26.713  29.221  51.534
30549W        W22473  45.188   0.786  51.046
30550W        W22474  34.741  17.265  53.329
30551W        W22475  36.212  13.250  52.409
30552W        W22476  48.209  26.748  50.612
30553W        W22477   9.254  45.220  52.899
30554W        W22478  21.755  19.240  52.872
30555W        W22479  34.229  44.691  50.126
30556W        W22480  40.210  45.198  50.136
30557W        W22481  14.251  40.188  53.361
30558W        W22482  30.711   5.768  50.139
30559W        W22483  35.704  11.735  52.405
30560W        W22484  23.749  13.258  50.142
30561W        W22485  42.711  47.692  50.125
30562W        W22486  34.207  35.735  53.330
30563W        W22487  12.278   1.778  50.582
30564W        W22488  46.182  25.218  51.984
30565W        W22489  31.208  47.705  52.433
30566W        W22490  42.691  46.690  52.883
30567W        W22491   1.793  34.739  49.683
30568W        W22492  29.213  11.246  52.418
30569W        W22493   8.773  33.235  52.862
30570W        W22494   3.780  27.719  51.957
30571W        W22495  36.712  38.735  51.499
30572W        W22496  32.720  47.694  51.499
30573W        W22497   1.771  13.729  52.436
30574W        W22498  12.234  33.743  51.978
30575W        W22499  26.750  22.734  53.784
30576W        W22500  30.715  27.715  53.777
30577W        W22501   2.789  27.732  51.958
30578W        W22502   8.754  47.714  51.045
30579W        W22503  28.752  33.217  52.876
30580W        W22504  29.702   1.268  51.976
30581W        W22505  21.263  34.710  50.150
30582W        W22506  27.235   3.278  53.776
30583W        W22507  20.234  46.692  49.707
30584W        W22508  15.266  12.771  50.579
30585W        W22509   9.739  47.208  50.618
30586W        W22510  35.228  13.730  52.895
30587W        W22511  30.705  25.230  51.979
30588W        W22512  28.730  27.222  51.989
30589W        W22513  38.217   4.289  49.693
30590W        W22514   6.772  19.739  51.512
30591W        W22515  39.210  31.721  51.502
30592W        W22516  13.771  32.735  53.343
30593W        W22517  36.216  42.199  49.707
30594W        W22518  18.764   6.787  51.528
30595W        W22519  39.716   6.250  52.878
30596W        W22520  32.204  27.219  51.041
30597W        W22521   2.291  14.753  53.784
30598W        W22522  15.249   2.281  53.790
30599W        W22523  17.731  20.740  50.165
30600W        W22524  46.675   2.771  53.775
30601W        W22525  21.265  22.254  50.585
30602W        W22526   6.744   5.283  53.811
30603W        W22527  32.728   8.258  51.514
30604W        W22528  48.197  12.262  49.667
30605W        W22529  46.219  35.728  50.156
30606W        W22530   6.276   0.755  51.503
30607W        W22531   5.242  29.721  51.533
30608W        W22532  38.200  33.713  50.126
30609W        W22533  22.244  35.208  52.900
30610W        W22534  47.713   6.273  50.155
30611W        W22535  45.196  33.236  49.679
30612W        W22536  20.229  30.210  51.054
30613W        W22537  20.248  42.222  53.361
30614W        W22538  17.241  31.214  51.502
30615W        W22539  26.731  37.233  51.073
30616W        W22540  12.733  41.722  51.067
30617W        W22541  39.725  47.191  49.695
30618W        W22542  26.732  48.197  51.968
30619W        W22543  22.756  24.218  52.900
30620W        W22544  29.233  40.193  53.349
30621W        W22545  22.743   8.778  50.161
30622W        W22546   6.243  24.730  51.499
30623W        W22547   5.259  13.229  50.156
30624W        W22548  22.747  43.683  51.956
30625W        W22549  25.217  42.204  52.865
30626W        W22550  39.722  48.202  52.866
30627W        W22551  22.715  48.173  49.702
30628W        W22552  46.203  31.736  52.405
30629W        W22553  41.223   3.785  50.125
30630W        W22554   4.745  38.709  51.063
30631W        W22555   6.759  38.700  52.876
30632W        W22556  11.763  33.705  53.810
30633W        W22557  46.181  43.698  49.676
30634W        W22558  23.718  42.188  50.578
30635W        W22559  18.760  24.242  51.987
30636W        W22560  17.232  23.723  52.886
30637W        W22561  31.719  11.741  51.492
30638W        W22562  24.716  34.213  51.984
30639W        W22563  42.682  43.725  51.496
30640W        W22564   0.783  19.250  51.986
30641W        W22565   1.264  18.746  50.585
30642W        W22566  18.236  42.727  49.695
30643W        W22567  48.188  39.698  53.800
30644W        W22568  10.756   4.285  53.349
30645W        W22569  18.769  39.218  51.981
30646W        W22570  33.226  46.687  50.580
30647W        W22571  15.230  10.740  52.446
30648W        W22572  38.701  23.727  53.332
30649W        W22573  17.229  29.206  51.074
30650W        W22574   0.276  13.273  53.816
30651W        W22575  36.205  45.211  52.412
30652W        W22576  17.252  25.749  51.047
30653W        W22577  30.743  42.216  50.158
30654W        W22578  36.705  10.276  51.075
30655W        W22579  10.777  15.272  51.047
30656W        W22580  26.715  41.200  50.156
30657W        W22581  39.213  35.234  50.160
30658W        W22582  22.733  17.239  52.865
30659W        W22583  40.189  42.680  53.324
30660W        W22584  34.736  27.237  50.144
30661W        W22585   3.290   8.262  53.346
30662W        W22586  10.761  46.184  50.161
30663W        W22587   6.242  29.742  53.327
30664W        W22588  47.703   5.788  52.443
30665W        W22589  42.708  20.230  51.067
30666W        W22590  42.225  47.684  52.894
30667W        W22591  44.213   5.290  50.155
30668W        W22592  20.221  37.710  50.595
30669W        W22593  40.194   5.764  51.048
30670W        W22594  31.700   5.257  52.410
30671W        W22595   3.744  48.201  50.586
30672W        W22596  32.208  40.220  52.882
30673W        W22597  11.763   2.772  51.043
30674W        W22598   4.790  31.206  53.808
30675W        W22599  25.734  33.236  51.531
30676W        W22600   0.796  40.220  53.791
30677W        W22601  12.752  38.223  52.890
30678W        W22602  25.211  23.721  52.870
30679W        W22603  20.758  20.235  51.960
30680W        W22604  11.274  13.232  50.129
30681W        W22605  33.721  47.216  52.413
30682W        W22606   1.795  14.729  53.349
30683W        W22607  41.721  12.755  51.499
30684W        W22608   8.251  18.750  51.041
30685W        W22609  31.744  10.758  51.949
30686W        W22610  39.196   8.751  52.431
30687W        W22611  41.224  19.254  51.531
30688W        W22612  19.238  10.270  53.779
30689W        W22613   1.791  42.212  53.784
30690W        W22614  11.240   8.781  51.042
30691W        W22615  45.712  28.731  53.344
30692W        W22616   4.769  47.703  50.135
30693W        W22617  20.729   9.782  52.876
30694W        W22618  15.260   6.244  52.404
30695W        W22619  12.741  31.201  53.344
30696W        W22620  33.743  14.748  52.893
30697W        W22621  44.183  27.743  51.070
30698W        W22622   1.796   7.272  51.073
30699W        W22623  45.706   0.760  51.973
30700W        W22624  29.220  18.226  53.773
30701W        W22625  40.729  24.728  53.784
30702W        W22626  28.715  31.711  52.899
30703W        W22627  10.735  22.233  50.581
30704W        W22628  41.193   1.780  50.585
30705W        W22629  20.250   4.790  51.051
30706W        W22630  18.224  37.715  49.693
30707W        W22631  36.194   2.767  52.874
30708W        W22632  33.737  32.224  51.512
30709W        W22633  13.239  26.241  52.864
30710W        W22634  27.223  30.238  50.593
30711W        W22635  12.272  45.693  50.157
30712W        W22636   8.278  21.246  51.964
30713W        W22637  44.681  36.209  53.811
30714W        W22638  32.244  46.682  50.126
30715W        W22639  31.744  30.219  50.589
30716W        W22640   3.287  16.273  51.038
30717W        W22641   2.292  38.705  51.067
30718W        W22642   8.271  39.715  51.990
30719W        W22643   1.291  26.724  53.360
30720W        W22644   0.780  45.219  51.497
30721W        W22645   6.253  33.233  51.514
30722W        W22646  44.716  28.723  49.678
30723W        W22647  42.692  21.261  52.892
30724W        W22648  10.234  16.270  53.792
30725W        W22649  43.208  16.236  52.867
30726W        W22650  30.712  29.215  53.795
30727W        W22651   4.791  25.733  52.435
30728W        W22652  38.721   0.286  50.608
30729W        W22653  32.238  40.684  52.410
30730W        W22654  36.208  13.269  50.588
30731W        W22655   2.778   3.773  50.595
30732W        W22656   2.774   9.738  51.955
30733W        W22657  19.223  34.715  51.075
30734W        W22658  39.698  20.219  52.882
30735W        W22659  19.255  40.227  49.671
30736W        W22660  37.193  13.250  52.885
30737W        W22661  30.738  22.720  49.695
30738W        W22662   6.766  16.248  52.887
30739W        W22663   2.754   3.780  52.901
30740W        W22664  31.205   1.751  50.580
30741W        W22665  28.706   9.273  52.874
30742W        W22666  40.197  22.233  53.345
30743W        W22667  40.726  13.737  53.792
30744W        W22668  46.695   7.277  50.582
30745W        W22669  16.745  30.227  53.325
30746W        W22670  20.231  36.208  51.978
30747W        W22671   1.775  25.215  53.336
30748W        W22672  25.722  16.772  53.327
30749W        W22673   4.280   7.776  52.437
30750W        W22674  16.769  44.680  51.974
30751W        W22675  15.770  32.233  50.150
30752W        W22676  22.742  47.211  51.527
30753W        W22677  15.768  43.228  52.414
30754W        W22678   4.251  36.238  52.874
30755W        W22679  10.246  10.240  49.680
30756W        W22680  15.259   5.282  51.991
30757W        W22681  30.734   0.274  50.162
30758W        W22682  37.226  20.233  50.147
30759W        W22683  24.751  41.202  52.883
30760W        W22684  38.733  36.694  51.074
30761W        W22685  29.229   1.249  52.406
30762W        W22686  44.715  20.265  52.873
30763W        W22687   1.776   9.783  50.164
30764W        W22688  27.210  21.259  52.890
30765W        W22689  40.712   9.762  51.076
30766W        W22690  19.266  47.202  51.983
30767W        W22691  42.682   7.260  53.360
30768W        W22692   1.296  29.723  53.784
30769W        W22693  33.736  36.224  51.991
30770W        W22694  30.224   2.786  51.493
30771W        W22695  37.734  44.180  51.500
30772W        W22696  33.244  10.275  53.334
30773W        W22697   6.783  25.725  51.959
30774W        W22698  37.215  33.212  50.139
30775W        W22699   9.738  47.702  49.672
30776W        W22700   8.765  16.249  49.667
30777W        W22701  17.755  23.240  53.319
30778W        W22702  31.247  25.750  49.695
30779W        W22703   3.765  41.720  50.601
30780W        W22704   1.276  25.720  50.122
30781W        W22705  22.757  12.740  52.902
30782W        W22706  47.683   2.274  51.963
30783W        W22707  29.251  26.720  49.706
30784W        W22708  29.723  10.737  53.798
30785W        W22709  39.699  48.177  51.980
30786W        W22710  20.226  30.704  51.512
30787W        W22711  39.717  18.758  51.046
30788W        W22712  32.219  37.704  53.787
30789W        W22713  48.218  38.196  51.983
30790W        W22714  36.696  31.241  50.601
30791W        W22715  41.723  18.733  51.079
30792W        W22716  34.213   2.777  50.589
30793W        W22717  18.246  34.242  51.971
30794W        W22718   8.244  34.727  53.798
30795W        W22719  28.736  34.735  52.440
30796W        W22720  36.214   8.258  51.984
30797W        W22721  37.729  27.754  53.336
30798W        W22722   2.285  21.254  52.861
30799W        W22723   3.258  27.708  53.323
30800W        W22724  17.753   9.249  51.501
30801W        W22725  31.738  31.199  50.164
30802W        W22726   7.279  10.739  51.505
30803W        W22727  10.282  35.718  50.141
30804W        W22728   9.743  12.247  52.898
30805W        W22729  41.718   5.285  52.415
30806W        W22730  21.262   4.774  51.040
30807W        W22731  33.729  44.684  49.709
30808W        W22732  22.224  39.200  51.975
30809W        W22733  37.236  47.192  52.420
30810W        W22734   1.754  44.717  51.504
30811W        W22735   5.775  13.260  50.592
30812W        W22736  30.203  44.715  50.600
30813W        W22737  21.258   7.757  51.517
30814W        W22738   1.288  31.231  53.789
30815W        W22739  22.243  24.235  49.692
30816W        W22740  46.717   3.782  50.122
30817W        W22741  48.180  30.232  52.884
30818W        W22742  24.218  40.690  50.127
30819W        W22743   9.243  47.683  50.619
30820W        W22744  43.199  45.695  52.898
30821W        W22745  37.715  40.705  49.699
30822W        W22746  38.212  11.244  52.876
30823W        W22747  22.729  22.228  52.412
30824W        W22748  14.744  42.194  50.579
30825W        W22749   4.780   2.267  51.508
30826W        W22750  30.216   4.783  51.950
30827W        W22751  18.266  30.239  53.331
30828W        W22752  17.761   9.251  51.034
30829W        W22753  45.688  30.720  50.584
30830W        W22754  14.746  17.227  50.610
30831W        W22755  23.238  40.705  51.503
30832W        W22756  34.200   4.283  53.335
30833W        W22757   1.748  22.216  53.324
30834W        W22758  24.727  12.759  50.143
30835W        W22759   2.278  45.680  53.808
30836W        W22760  21.255  20.716  53.806
30837W        W22761   0.785  39.218  50.166
30838W        W22762  29.751  19.756  51.991
30839W        W22763  32.209  30.725  49.708
30840W        W22764  16.724  45.692  51.042
30841W        W22765  33.741  44.714  51.044
30842W        W22766   6.784   4.262  50.142
30843W        W22767  24.250  28.709  53.776
30844W        W22768  13.740  26.226  50.602
30845W        W22769  39.703  13.251  53.781
30846W        W22770  19.251   5.756  49.671
30847W        W22771  22.718  17.734  53.333
30848W        W22772  21.221  41.214  51.497
30849W        W22773  34.199  12.756  52.860
30850W        W22774   1.291   6.755  52.407
30851W        W22775  24.215  24.228  49.707
30852W        W22776   5.277  18.241  51.492
30853W        W22777  35.696   1.748  53.809
30854W        W22778  19.761  40.200  51.978
30855W        W22779   9.267   9.781  51.035
30856W        W22780  39.233  39.707  50.121
30857W        W22781  15.235  47.718  51.950
30858W        W22782  41.721   5.745  52.448
30859W        W22783  41.729  43.217  51.043
30860W        W22784  40.685  17.724  53.341
30861W        W22785  26.737  36.232  52.884
30862W        W22786  35.731   0.298  52.871
30863W        W22787  23.733   0.294  51.056
30864W        W22788  10.752  16.752  50.611
30865W        W22789  34.732  22.728  53.777
30866W        W22790   5.775  18.234  51.971
30867W        W22791  14.262  28.221  52.860
30868W        W22792  18.750  31.227  53.805
30869W        W22793  26.207   8.738  53.802
30870W        W22794  30.703  42.686  52.411
30871W        W22795   5.242  27.254  53.817
30872W        W22796  11.246   3.746  50.579
30873W        W22797   4.265   5.277  49.696
30874W        W22798   9.253  15.240  51.990
30875W        W22799  26.713   9.278  50.582
30876W        W22800  25.243  22.733  51.073
30877W        W22801  40.218  25.710  51.060
30878W        W22802   7.262  20.720  53.341
30879W        W22803  46.194  25.255  49.708
30880W        W22804  25.756  24.253  53.348
30881W        W22805  13.253  18.728  50.136
30882W        W22806  14.231   3.288  50.140
30883W        W22807  25.231  33.218  51.041
30884W        W22808   9.751  47.210  53.347
30885W        W22809  22.238  25.220  51.528
30886W        W22810   9.248  36.690  50.581
30887W        W22811  20.760   2.247  51.060
30888W        W22812   3.767   4.752  50.579
30889W        W22813  36.725  43.712  52.862
30890W        W22814   7.776  47.199  49.674
30891W        W22815   2.295  47.720  49.665
30892W        W22816   2.263  29.248  51.075
30893W        W22817  29.209  28.736  50.121
30894W        W22818  29.237  14.270  50.127
30895W        W22819  35.696  19.738  51.039
30896W        W22820  32.230  33.731  51.512
30897W        W22821   6.749  40.706  50.139
30898W        W22822  46.680   6.762  51.491
30899W        W22823  14.775   7.774  53.338
30900W        W22824   2.294  19.734  51.960
30901W        W22825   6.276   9.770  52.871
30902W        W22826  40.224  25.221  51.057
30903W        W22827  40.719  36.230  53.788
30904W        W22828  15.231  32.228  50.585
30905W        W22829  11.775  21.754  51.965
30906W        W22830  10.750  12.266  52.900
30907W        W22831  24.236  22.741  50.606
30908W        W22832  38.229  20.248  52.897
30909W        W22833  19.728  37.724  51.520
30910W        W22834   1.763  44.711  52.889
30911W        W22835  12.774  14.232  51.496
30912W        W22836  26.240  36.722  51.496
30913W        W22837  32.696   0.773  50.620
30914W        W22838  20.755  43.679  50.583
30915W        W22839  18.236  31.730  50.122
30916W        W22840   2.271  36.723  51.958
30917W        W22841  19.241   0.264  53.317
30918W        W22842  36.716  29.735  52.406
30919W        W22843   1.268  42.688  50.585
30920W        W22844   3.277  44.692  51.970
30921W        W22845  27.253   4.291  53.319
30922W        W22846  36.739   1.285  51.060
30923W        W22847  12.269  28.209  52.864
30924W        W22848   1.793  17.758  53.326
30925W        W22849  40.202  40.195  51.058
30926W        W22850  33.738  37.698  52.433
30927W        W22851  47.696   7.751  50.607
30928W        W22852  12.275  31.727  51.520
30929W        W22853  22.231  20.221  52.418
30930W        W22854  26.709   4.258  50.127
30931W        W22855  47.680  45.701  50.592
30932W        W22856   6.774  12.238  49.707
30933W        W22857  28.719  36.228  52.870
30934W        W22858  12.248  25.221  51.530
30935W        W22859   9.769  41.723  50.140
30936W        W22860  19.766   9.767  52.876
30937W        W22861   2.778  39.729  50.598
30938W        W22862  37.712  12.232  52.405
30939W        W22863  36.213  33.739  52.441
30940W        W22864  27.234  39.708  53.329
30941W        W22865  24.245  22.715  53.337
30942W        W22866  28.743  42.729  51.036
30943W        W22867  27.733   5.760  53.781
30944W        W22868  40.700  24.712  52.883
30945W        W22869  43.694  24.224  52.873
30946W        W22870   2.793  11.278  53.358
30947W        W22871  18.728  26.708  51.499
30948W        W22872  43.211  36.699  51.986
30949W        W22873  14.744  31.199  49.672
30950W        W22874  39.687  33.740  53.319
30951W        W22875  44.179  30.719  51.982
30952W        W22876  38.202  19.738  53.814
30953W        W22877  36.218  19.732  52.426
30954W        W22878  29.717  43.724  51.036
30955W        W22879  14.746  39.197  52.897
30956W        W22880  48.216  33.200  50.131
30957W        W22881   9.281  22.245  51.073
30958W        W22882  23.248  10.237  53.790
30959W        W22883  13.245  28.231  50.166
30960W        W22884  36.700  41.191  50.139
30961W        W22885  10.770  42.725  51.504
30962W        W22886   5.751  15.252  51.966
30963W        W22887  19.252  46.205  51.045
30964W        W22888  31.730  48.183  52.436
30965W        W22889   9.268  36.731  53.782
30966W        W22890  38.714  34.210  51.976
30967W        W22891  17.247   9.238  53.320
30968W        W22892   8.753  22.224  52.873
30969W        W22893  31.745  23.231  53.348
30970W        W22894  34.714   5.277  52.420
30971W        W22895  32.729  22.226  49.681
30972W        W22896  41.223   3.284  51.043
30973W        W22897  13.229  45.685  51.963
30974W        W22898   7.783  10.743  53.333
30975W        W22899  23.744  47.210  52.870
30976W        W22900   8.281  21.249  53.799
30977W        W22901  17.247  27.251  50.618
30978W        W22902  16.751  26.234  51.958
30979W        W22903  14.735  34.206  49.686
30980W        W22904  24.712   8.262  51.508
30981W        W22905  10.771   6.746  52.898
30982W        W22906  44.180  41.227  52.888
30983W        W22907  36.214  26.707  51.492
30984W        W22908  19.727  31.244  51.956
30985W        W22909  38.726  21.250  50.139
30986W        W22910  26.237  31.224  51.961
30987W        W22911  20.237   9.780  51.961
30988W        W22912  43.195  13.768  53.799
30989W        W22913  24.712   2.290  50.162
30990W        W22914  27.251  26.756  51.978
30991W        W22915  25.717  21.720  53.348
30992W        W22916  27.726   5.255  50.166
30993W        W22917   6.241  16.752  53.347
30994W        W22918  27.214  25.216  50.166
30995W        W22919  24.715  35.236  52.884
30996W        W22920  34.711  34.226  53.316
30997W        W22921  30.717  20.225  52.417
30998W        W22922  46.693  25.744  52.444
30999W        W22923   9.239  20.723  52.863
31000W        W22924   4.754  39.720  52.900
31001W        W22925  11.271  44.707  53.796
31002W        W22926  30.716  35.737  50.602
31003W        W22927  25.742  15.769  52.899
31004W        W22928  17.271  26.230  53.801
31005W        W22929  37.715  39.721  53.324
31006W        W22930  10.259  10.781  51.047
31007W        W22931  16.766  45.703  50.136
31008W        W22932  43.190  25.249  51.527
31009W        W22933  48.217  12.233  51.040
31010W        W22934  35.197   4.249  51.975
31011W        W22935  46.214   2.263  50.157
31012W        W22936  29.747  31.211  52.409
31013W        W22937  42.201  44.179  53.360
31014W        W22938   2.289  40.199  50.606
31015W        W22939   5.245  45.200  49.703
31016W        W22940  17.747  11.777  51.981
31017W        W22941   3.788  41.204  51.528
31018W        W22942  34.697  45.707  51.501
31019W        W22943  29.730  27.747  51.956
31020W        W22944  22.258  41.688  53.319
31021W        W22945   6.259  41.705  51.524
31022W        W22946  11.242  34.697  53.322
31023W        W22947  42.216  26.747  50.590
31024W        W22948   8.241  35.235  53.331
31025W        W22949  19.237  32.704  51.497
31026W        W22950  15.264  21.727  52.407
31027W        W22951  28.214  29.731  52.420
31028W        W22952  11.731  41.716  52.416
31029W        W22953  48.205  11.277  51.055
31030W        W22954  40.213  23.728  51.070
31031W        W22955  31.241  29.741  53.322
31032W        W22956   4.746  20.737  53.796
31033W        W22957   8.782  36.705  50.155
31034W        W22958  11.734  39.716  50.126
31035W        W22959  13.764  18.766  53.802
31036W        W22960  29.249  23.243  50.609
31037W        W22961  28.747  48.192  50.133
31038W        W22962  31.701   3.750  53.810
31039W        W22963   1.775  12.278  49.679
31040W        W22964  46.682  34.732  51.054
31041W        W22965  29.702  39.727  52.407
31042W        W22966  24.732   2.282  53.796
31043W        W22967   6.283  22.256  51.521
31044W        W22968  25.721  42.190  50.592
31045W        W22969  18.257  41.723  52.888
31046W        W22970  20.722  19.233  50.601
31047W        W22971  32.243   9.740  52.873
31048W        W22972  13.251  34.217  53.324
31049W        W22973  20.738  15.248  50.601
31050W        W22974   1.276  33.714  50.586
31051W        W22975   7.760  41.220  51.533
31052W        W22976  13.249   0.778  52.902
31053W        W22977   3.770  12.271  50.147
31054W        W22978  32.722  24.715  50.152
31055W        W22979  10.269  40.691  51.510
31056W        W22980  24.715  38.708  51.064
31057W        W22981  38.700   7.759  53.360
31058W        W22982  23.728  36.720  50.615
31059W        W22983  41.714   1.251  50.129
31060W        W22984   4.752   3.763  52.895
31061W        W22985   2.272  45.216  51.058
31062W        W22986  30.248  46.211  52.859
31063W        W22987  10.247   7.756  52.442
31064W        W22988   4.260   3.775  52.866
31065W        W22989  26.732  29.744  52.448
31066W        W22990  19.718  47.691  53.332
31067W        W22991   2.280  32.232  52.875
31068W        W22992  20.741   6.243  49.683
31069W        W22993  35.709   7.749  49.706
31070W        W22994  29.233  29.234  50.162
31071W        W22995  39.688  35.737  49.678
31072W        W22996  45.198  34.197  53.353
31073W        W22997  47.691  16.754  53.804
31074W        W22998   3.787  27.208  52.410
31075W        W22999   3.287  25.720  53.794
31076W        W23000  27.249  31.714  50.130
31077W        W23001  38.197   6.263  51.047
31078W        W23002  26.228  21.719  50.614
31079W        W23003   8.268   1.796  53.320
31080W        W23004  13.271  29.719  51.068
31081W        W23005  32.719  26.239  50.590
31082W        W23006  13.731  41.688  50.137
31083W        W23007  27.737  34.207  51.957
31084W        W23008  27.729  30.228  51.037
31085W        W23009  28.740  20.264  49.677
31086W        W23010  19.227   6.787  52.404
31087W        W23011  15.736  23.752  53.804
31088W        W23012  10.243  12.741  50.605
31089W        W23013  16.243   4.285  52.883
31090W        W23014  17.763  30.226  51.515
31091W        W23015  10.751  48.206  52.889
31092W        W23016  44.207  36.216  53.787
31093W        W23017  30.705  10.275  49.681
31094W        W23018   1.294  31.705  49.664
31095W        W23019  29.251  24.246  51.983
31096W        W23020  13.267  44.197  53.793
31097W        W23021   2.774   5.281  51.519
31098W        W23022  37.722  38.715  50.620
31099W        W23023   1.776  17.260  50.121
31100W        W23024  44.679  22.752  51.975
31101W        W23025  13.244  45.195  52.418
31102W        W23026  35.212  36.733  51.983
31103W        W23027  18.239  32.716  50.587
31104W        W23028  25.742  15.231  51.975
31105W        W23029  40.704  31.739  49.706
31106W        W23030   6.748  27.239  53.329
31107W        W23031  33.712  34.740  53.357
31108W        W23032  11.279  30.737  52.875
31109W        W23033  23.739  37.715  52.863
31110W        W23034  26.208  42.705  50.125
31111W        W23035  27.732   8.782  52.441
31112W        W23036  32.213  14.739  49.667
31113W        W23037  35.222  42.211  51.071
31114W        W23038  31.707  10.747  51.043
31115W        W23039  35.207  29.705  52.442
31116W        W23040  21.724   0.793  52.902
31117W        W23041  21.230  30.242  52.866
31118W        W23042   4.765  22.226  53.332
31119W        W23043  44.194   3.262  52.901
31120W        W23044  26.752  15.250  50.600
31121W        W23045  44.704  42.689  51.491
31122W        W23046   9.266  15.749  50.132
31123W        W23047  19.232  28.738  52.412
31124W        W23048  38.725  26.736  51.950
31125W        W23049  17.266  23.717  50.612
31126W        W23050  14.728   0.259  53.351
31127W        W23051   1.765  32.701  49.697
31128W        W23052  12.276  34.719  53.352
31129W        W23053  22.745  34.194  50.138
31130W        W23054   2.764  40.185  52.416
31131W        W23055  23.226  16.271  50.126
31132W        W23056   9.260  20.751  52.413
31133W        W23057   4.774  23.249  50.143
31134W        W23058   6.765  19.748  52.864
31135W        W23059  34.243  20.722  51.051
31136W        W23060  24.725  36.691  53.806
31137W        W23061  44.191  18.239  49.689
31138W        W23062  12.766  40.693  51.984
31139W        W23063   3.776  16.235  51.961
31140W        W23064  39.694  20.249  49.678
31141W        W23065  43.725  41.208  51.991
31142W        W23066  44.718  16.741  52.424
31143W        W23067  25.212  31.715  51.528
31144W        W23068  30.243  33.741  53.780
31145W        W23069   9.756  30.735  49.682
31146W        W23070  16.245  25.741  53.810
31147W        W23071  12.270  45.701  53.357
31148W        W23072  14.756  41.183  53.808
31149W        W23073  36.723  48.184  53.353
31150W        W23074   5.754  44.202  53.801
31151W        W23075   3.780  25.224  52.405
31152W        W23076   9.771   3.754  53.348
31153W        W23077   3.292  32.219  51.498
31154W        W23078  26.223  26.733  51.979
31155W        W23079  19.747  11.268  53.339
31156W        W23080  21.725   9.248  51.512
31157W        W23081  40.703   8.265  52.896
31158W        W23082  40.230  43.220  53.789
31159W        W23083  26.707  26.730  52.445
31160W        W23084   9.777  10.281  52.860
31161W        W23085  21.749  24.716  53.772
31162W        W23086   4.788  31.733  51.527
31163W        W23087  17.739  26.229  52.440
31164W        W23088  25.229  41.711  51.958
31165W        W23089  40.230  37.205  51.070
31166W        W23090  44.202  37.689  52.425
31167W        W23091  16.237  17.255  52.421
31168W        W23092  10.781  26.245  53.358
31169W        W23093  23.242  39.706  52.409
31170W        W23094   8.256  28.715  51.533
31171W        W23095   4.246  31.743  51.499
31172W        W23096   5.775  20.226  49.667
31173W        W23097  44.200  39.708  50.126
31174W        W23098   2.266  43.186  50.136
31175W        W23099  25.757  33.244  51.053
31176W        W23100  22.220  36.234  53.354
31177W        W23101   8.257   9.746  51.501
31178W        W23102  33.197   8.780  51.055
31179W        W23103   5.245  16.772  52.406
31180W        W23104   0.758   9.275  53.361
31181W        W23105  35.723  45.702  50.598
31182W        W23106  11.266  32.210  51.498
31183W        W23107   5.268  45.703  51.528
31184W        W23108  17.271  26.238  51.501
31185W        W23109  13.765  32.732  50.166
31186W        W23110  34.719  38.225  50.604
31187W        W23111   0.765  12.244  49.668
31188W        W23112  41.182  45.200  53.341
31189W        W23113  41.195  44.680  50.137
31190W        W23114   9.281  14.271  49.680
31191W        W23115  43.204  36.193  49.687
31192W        W23116  48.172  20.758  51.985
31193W        W23117  21.232  24.238  49.706
31194W        W23118  34.231  13.265  49.679
31195W        W23119   6.278   6.287  53.795
31196W        W23120  47.690   8.238  52.430
31197W        W23121   1.277  18.750  51.039
31198W        W23122  45.698  31.214  52.889
31199W        W23123  30.734   2.270  53.781
31200W        W23124  33.202   4.777  50.615
31201W        W23125  42.219  23.715  51.061
31202W        W23126  48.214  25.234  53.787
31203W        W23127  44.191  46.713  53.320
31204W        W23128  31.204  41.219  53.352
31205W        W23129   7.271  18.719  52.869
31206W        W23130   5.782  22.256  49.698
31207W        W23131   3.282   4.285  52.891
31208W        W23132  16.256  44.179  49.676
31209W        W23133  40.696  28.744  51.057
31210W        W23134  10.775  11.249  52.892
31211W        W23135  19.257  10.777  51.515
31212W        W23136  43.209   0.252  51.498
31213W        W23137  26.735  41.696  52.867
31214W        W23138  16.262  21.728  49.705
31215W        W23139   0.251   6.767  52.884
31216W        W23140  41.202   6.756  50.597
31217W        W23141  10.258  44.699  52.882
31218W        W23142   9.248  27.235  50.166
31219W        W23143  30.234  21.738  50.594
31220W        W23144  26.234  46.198  50.611
31221W        W23145  18.239  48.192  52.416
31222W        W23146   3.266   7.240  52.859
31223W        W23147   0.754   7.771  50.135
31224W        W23148  26.710  10.778  51.954
31225W        W23149  46.686  11.246  50.600
31226W        W23150  23.737   8.755  51.075
31227W        W23151   7.740  46.219  49.699
31228W        W23152  44.198  29.721  51.968
31229W        W23153  37.202  10.752  51.965
31230W        W23154   9.737  47.198  49.671
31231W        W23155   9.748  12.737  52.413
31232W        W23156  33.232   2.762  51.077
31233W        W23157  23.754  21.738  53.806
31234W        W23158  30.247  37.711  50.125
31235W        W23159  18.245  39.210  53.779
31236W        W23160  43.684   8.785  51.948
31237W        W23161  48.179  38.725  51.961
31238W        W23162  29.249  34.711  52.875
31239W        W23163  20.723  47.688  52.415
31240W        W23164  43.723  13.271  52.448
31241W        W23165  29.233  16.736  53.322
31242W        W23166  46.199  27.210  53.318
31243W        W23167  44.203  41.699  53.333
31244W        W23168  26.720  33.701  52.884
31245W        W23169  33.723  11.245  51.079
31246W        W23170  36.196  16.722  52.438
31247W        W23171   9.756  41.722  53.793
31248W        W23172   2.772  34.717  50.603
31249W        W23173  35.727  40.184  51.048
31250W        W23174  31.214  12.755  51.522
31251W        W23175   5.263  28.204  51.035
31252W        W23176  20.256   4.270  53.788
31253W        W23177  13.263  14.227  51.519
31254W        W23178  47.684  27.735  50.616
31255W        W23179  45.184  41.215  49.682
31256W        W23180  13.244   5.279  49.695
31257W        W23181  10.254  20.238  49.674
31258W        W23182  40.716  18.223  51.964
31259W        W23183  30.739  40.202  50.590
31260W        W23184  27.224  20.734  53.318
31261W        W23185  11.246   8.737  51.981
31262W        W23186  18.235  17.264  52.403
31263W        W23187   0.261  36.227  51.989
31264W        W23188  13.265  37.224  51.497
31265W        W23189  18.259   5.769  53.330
31266W        W23190   5.760  20.244  51.533
31267W        W23191  15.768  23.248  52.880
31268W        W23192  29.230  15.758  51.501
31269W        W23193   6.241  12.774  51.057
31270W        W23194  24.725  32.219  52.882
31271W        W23195  46.190  10.735  52.447
31272W        W23196  22.217  19.261  51.523
31273W        W23197  20.728  19.236  51.517
31274W        W23198   7.778  28.249  51.066
31275W        W23199   2.760  23.754  51.958
31276W        W23200  42.228   3.750  53.777
31277W        W23201  43.721  18.230  51.504
31278W        W23202   7.282  15.244  51.990
31279W        W23203  26.739   5.256  52.414
31280W        W23204   3.763  38.209  50.578
31281W        W23205  30.243  16.226  51.509
31282W        W23206   2.778  36.217  50.622
31283W        W23207  28.710  11.276  51.969
31284W        W23208  34.733  14.269  51.963
31285W        W23209  13.243  45.723  50.597
31286W        W23210  27.733  31.730  52.428
31287W        W23211  10.254  41.212  52.424
31288W        W23212  20.246   6.268  51.959
31289W        W23213  47.695  41.202  50.150
31290W        W23214  37.225  40.699  50.620
31291W        W23215  32.204  42.218  51.494
31292W        W23216  46.205   0.791  53.356
31293W        W23217  10.243  47.709  52.869
31294W        W23218   1.268   9.285  49.674
31295W        W23219  21.736  18.259  53.348
31296W        W23220  34.202  46.702  51.493
31297W        W23221  19.224  15.250  52.872
31298W        W23222   8.276  33.212  53.319
31299W        W23223  48.212  35.232  50.613
31300W        W23224  43.228  16.767  51.958
31301W        W23225  11.234  16.258  52.900
31302W        W23226  46.694  24.245  52.446
31303W        W23227  27.740  33.741  50.123
31304W        W23228  46.691  10.264  53.349
31305W        W23229  37.727  46.707  50.602
31306W        W23230  19.749  14.730  51.528
31307W        W23231  37.726  44.178  50.581
31308W        W23232  39.190   6.750  51.948
31309W        W23233  48.173  32.198  53.796
31310W        W23234   0.767  13.762  50.146
31311W        W23235  22.731  47.720  53.344
31312W        W23236  13.736  34.723  52.443
31313W        W23237   7.257  18.762  51.521
31314W        W23238   9.771   8.746  53.323
31315W        W23239  19.220   1.778  50.613
31316W        W23240   2.776   0.763  51.056
31317W        W23241   2.291  34.731  50.579
31318W        W23242  30.214  23.752  51.059
31319W        W23243  46.717  26.741  53.349
31320W        W23244  42.194  38.720  50.144
31321W        W23245  32.701  45.705  50.158
31322W        W23246  45.206  38.688  51.527
31323W        W23247  24.244   9.253  51.049
31324W        W23248   7.252  38.196  51.513
31325W        W23249  43.180   4.249  50.138
31326W        W23250  14.760  24.221  53.774
31327W        W23251  38.689  34.727  50.152
31328W        W23252  36.193   4.266  53.342
31329W        W23253   2.745   6.744  49.686
31330W        W23254  47.191  39.186  50.131
31331W        W23255  25.248  19.736  50.588
31332W        W23256  18.745  21.258  52.861
31333W        W23257  28.238   9.238  51.068
31334W        W23258  25.723  45.195  50.165
31335W        W23259  25.738  34.695  51.530
31336W        W23260  23.222  47.705  51.041
31337W        W23261  13.253   0.772  51.981
31338W        W23262  12.768  25.211  49.667
31339W        W23263   9.753  42.218  52.447
31340W        W23264  13.772  19.258  53.803
31341W        W23265   0.780  26.227  49.697
31342W        W23266  27.253   0.285  50.127
31343W        W23267  33.710  31.740  50.606
31344W        W23268  26.735  32.722  50.142
31345W        W23269   7.283  17.737  50.595
31346W        W23270  40.227   9.284  53.357
31347W        W23271   9.240   4.251  50.147
31348W        W23272  15.737  25.743  51.063
31349W        W23273  22.257  45.178  51.040
31350W        W23274  16.273  33.703  53.326
31351W        W23275  14.257  44.704  51.491
31352W        W23276  32.206  31.204  51.034
31353W        W23277  46.716  30.739  49.686
31354W        W23278  23.738  47.674  52.405
31355W        W23279  47.191  45.694  52.442
31356W        W23280  35.722  30.748  52.864
31357W        W23281  13.255  17.733  50.152
31358W        W23282  30.709  21.216  51.980
31359W        W23283   1.748   6.260  51.066
31360W        W23284   6.254   6.747  51.966
31361W        W23285  14.771  45.722  53.342
31362W        W23286  22.728  30.212  49.676
31363W        W23287   1.296  39.696  51.067
31364W        W23288   1.786  45.205  51.525
31365W        W23289   5.257  30.702  53.332
31366W        W23290  35.727  29.211  51.042
31367W        W23291  45.199  14.238  50.591
31368W        W23292   7.275  40.210  49.680
31369W        W23293  19.261  10.278  51.974
31370W        W23294  21.222  31.724  52.410
31371W        W23295   0.772  32.735  50.151
31372W        W23296  26.729   7.258  51.971
31373W        W23297  39.213  40.229  52.412
31374W        W23298  12.757  12.249  49.670
31375W        W23299  40.229   4.781  52.405
31376W        W23300  41.726  25.739  52.419
31377W        W23301  12.746  20.740  53.323
31378W        W23302   4.253  35.206  52.405
31379W        W23303  18.753  27.230  51.054
31380W        W23304   6.253  48.184  51.044
31381W        W23305   3.777  20.233  49.681
31382W        W23306  31.222  13.775  51.954
31383W        W23307  22.218   5.265  52.869
31384W        W23308  11.751  22.215  53.335
31385W        W23309  28.216  16.235  51.964
31386W        W23310  47.208  18.249  53.805
31387W        W23311   3.284  30.215  53.360
31388W        W23312  20.255   6.774  50.585
31389W        W23313   0.796  21.727  49.689
31390W        W23314  21.720  14.257  52.863
31391W        W23315   5.250  25.744  51.500
31392W        W23316  41.211  10.738  52.881
31393W        W23317   0.286  26.208  52.443
31394W        W23318  22.218  14.750  51.970
31395W        W23319  21.731  44.706  51.494
31396W        W23320  42.725   3.292  51.977
31397W        W23321   5.262  45.211  50.126
31398W        W23322   6.781   5.757  51.969
31399W        W23323  21.229  31.739  50.616
31400W        W23324   6.740   5.289  50.614
31401W        W23325  35.197  31.726  52.865
31402W        W23326   0.282  33.196  50.599
31403W        W23327  24.715   9.753  52.409
31404W        W23328  48.219  36.229  52.875
31405W        W23329  12.236  12.754  53.799
31406W        W23330  16.747   0.783  52.417
31407W        W23331  29.704  16.251  53.316
31408W        W23332  29.221   7.786  50.609
31409W        W23333  42.725  22.255  51.521
31410W        W23334  46.182   0.779  53.788
31411W        W23335  22.731   6.789  50.606
31412W        W23336  20.746  46.681  51.526
31413W        W23337  24.742  22.724  53.358
31414W        W23338  23.741  22.735  52.417
31415W        W23339   2.771   6.763  52.875
31416W        W23340  25.736   7.243  53.354
31417W        W23341  31.213   2.747  51.947
31418W        W23342   5.748  15.252  50.152
31419W        W23343  28.228  14.255  49.701
31420W        W23344  24.731   5.757  52.414
31421W        W23345  12.766   2.764  51.051
31422W        W23346  47.710  16.226  53.772
31423W        W23347  25.735  17.252  53.335
31424W        W23348  10.761   7.769  50.585
31425W        W23349  41.729  29.744  51.512
31426W        W23350  20.763  42.182  50.150
31427W        W23351  15.738  15.240  52.411
31428W        W23352  26.722  13.239  52.874
31429W        W23353   4.776   3.766  50.147
31430W        W23354  37.235  46.200  53.779
31431W        W23355   7.279   3.780  50.158
31432W        W23356   8.752  30.746  51.056
31433W        W23357  10.269   0.787  52.419
31434W        W23358  43.699  40.719  51.534
31435W        W23359  41.693  45.696  51.991
31436W        W23360  29.721  15.753  51.079
31437W        W23361   9.260  14.241  53.786
31438W        W23362   3.772  47.709  53.789
31439W        W23363  30.712  34.703  52.418
31440W        W23364  11.756   6.778  53.353
31441W        W23365  47.182  39.191  49.710
31442W        W23366  26.710  23.715  51.956
31443W        W23367   3.748  45.694  53.787
31444W        W23368  16.743  19.259  50.581
31445W        W23369   4.764  47.695  50.615
31446W        W23370  37.193  32.745  52.410
31447W        W23371  31.240  46.219  49.699
31448W        W23372  18.751  34.217  50.135
31449W        W23373  21.729  21.746  51.520
31450W        W23374  34.721  14.760  51.983
31451W        W23375  25.735  16.765  52.421
31452W        W23376  41.730  20.755  53.340
31453W        W23377  14.247  30.714  50.153
31454W        W23378  41.194  44.203  50.151
31455W        W23379  31.219  45.199  53.321
31456W        W23380  10.260   2.273  50.583
31457W        W23381  47.685   4.791  51.956
31458W        W23382   1.285  31.244  50.144
31459W        W23383  44.677  45.201  52.433
31460W        W23384  28.230  12.762  52.882
31461W        W23385  24.232  16.254  52.873
31462W        W23386   9.737  47.685  52.436
31463W        W23387   8.242   8.261  51.057
31464W        W23388   8.239  13.237  51.948
31465W        W23389  24.717   9.761  50.153
31466W        W23390   2.282  33.235  52.434
31467W        W23391  31.711  37.716  52.431
31468W        W23392  14.249  38.190  50.131
31469W        W23393   6.251  46.206  51.955
31470W        W23394  22.242  37.192  49.665
31471W        W23395  39.203  35.239  50.620
31472W        W23396  30.226  12.251  51.045
31473W        W23397  34.721  48.200  51.054
31474W        W23398   1.756  14.773  50.603
31475W        W23399  19.218   9.283  49.680
31476W        W23400  42.715   0.272  50.138
31477W        W23401  32.246   8.251  51.496
31478W        W23402   0.265  11.755  52.446
31479W        W23403   9.244   2.260  53.345
31480W        W23404  25.738  11.251  49.665
31481W        W23405  14.728  29.733  52.880
31482W        W23406  47.708   2.270  50.130
31483W        W23407  13.248   3.266  52.427
31484W        W23408   9.259  38.220  52.863
31485W        W23409  30.745  13.247  52.895
31486W        W23410  30.732  44.193  51.494
31487W        W23411  10.268  39.230  51.514
31488W        W23412  42.193  46.679  53.773
31489W        W23413   5.747  24.237  53.806
31490W        W23414  45.687  17.761  52.866
31491W        W23415  26.718  32.243  49.704
31492W        W23416  35.728  46.687  51.519
31493W        W23417  40.714   7.267  51.967
31494W        W23418  24.213  38.201  49.687
31495W        W23419   3.792  28.205  51.054
31496W        W23420  44.726  23.229  49.685
31497W        W23421  16.745  42.725  52.426
31498W        W23422  22.256  40.699  49.680
31499W        W23423   6.762  25.220  51.069
31500W        W23424   6.752  37.717  50.601
31501W        W23425  27.737   4.783  53.790
31502W        W23426  11.756  37.735  51.532
31503W        W23427  11.731   1.256  52.411
31504W        W23428  26.755  44.219  51.040
31505W        W23429  25.726   5.286  50.578
31506W        W23430  17.267   2.747  50.580
31507W        W23431  39.231   4.253  50.589
31508W        W23432  15.238  38.705  51.951
31509W        W23433  34.719  34.708  50.161
31510W        W23434  48.207  27.713  50.622
31511W        W23435   9.745  20.230  49.667
31512W        W23436  22.246  36.726  53.319
31513W        W23437   4.764  11.745  51.531
31514W        W23438   3.257  48.213  51.513
31515W        W23439  24.756  18.231  51.037
31516W        W23440  10.256  45.199  52.879
31517W        W23441  23.237   5.280  50.125
31518W        W23442  15.265  34.233  53.359
31519W        W23443  10.274  12.262  51.950
31520W        W23444  39.206  33.224  49.668
31521W        W23445  10.774  41.728  51.055
31522W        W23446   4.262  15.226  49.665
31523W        W23447  21.718  31.744  51.969
31524W        W23448  21.734  43.181  52.437
31525W        W23449   2.279  39.187  50.617
31526W        W23450  40.722  27.724  50.142
31527W        W23451  39.715  42.185  51.990
31528W        W23452  43.707   6.742  52.445
31529W        W23453  16.241  32.213  52.446
31530W        W23454  38.730  30.226  51.518
31531W        W23455   4.785  31.700  50.592
31532W        W23456  47.688  38.727  52.864
31533W        W23457  20.264   0.764  53.344
31534W        W23458  36.195  12.741  51.491
31535W        W23459  40.213  42.202  51.985
31536W        W23460  46.197  11.765  52.417
31537W        W23461  42.680   7.763  53.338
31538W        W23462  41.719  46.685  52.404
31539W        W23463  16.236   5.278  50.584
31540W        W23464  34.714  20.264  53.317
31541W        W23465  16.268   0.272  51.970
31542W        W23466  28.735  24.245  51.954
31543W        W23467   8.264   0.786  50.600
31544W        W23468  22.732  27.244  50.614
31545W        W23469  45.689  16.750  53.785
31546W        W23470   1.291  12.236  49.688
31547W        W23471  36.731  38.721  51.035
31548W        W23472  46.223  17.738  53.792
31549W        W23473  41.207  41.727  53.330
31550W        W23474  41.189  20.723  51.054
31551W        W23475  39.703  26.746  52.876
31552W        W23476  40.697  14.239  50.601
31553W        W23477  31.247  22.237  52.862
31554W        W23478  41.723  37.212  50.607
31555W        W23479  20.738  31.719  51.510
31556W        W23480  20.753  45.713  51.043
31557W        W23481  45.709  22.755  51.525
31558W        W23482   9.274   5.286  51.959
31559W        W23483  38.215  20.264  49.694
31560W        W23484  35.240  34.209  50.152
31561W        W23485  14.730  46.693  49.692
31562W        W23486   2.286  27.234  51.960
31563W        W23487   3.275  11.737  50.125
31564W        W23488  35.240  13.256  49.686
31565W        W23489   2.767  39.704  51.059
31566W        W23490  10.749   6.277  51.984
31567W        W23491  27.748   2.247  53.794
31568W        W23492  21.248  29.226  51.978
31569W        W23493   9.272  41.685  51.521
31570W        W23494  48.210   7.777  52.409
31571W        W23495   0.299  24.252  51.528
31572W        W23496  31.245  29.713  49.674
31573W        W23497   3.749  19.257  53.813
31574W        W23498  19.727  19.749  52.437
31575W        W23499  45.677  43.191  51.524
31576W        W23500  12.230  16.247  50.617
31577W        W23501  18.237   6.250  52.882
31578W        W23502  42.184   8.284  51.526
31579W        W23503   4.278  21.233  50.606
31580W        W23504  28.717  19.239  53.791
31581W        W23505  10.738  22.722  53.772
31582W        W23506  28.211  38.703  50.144
31583W        W23507  11.243   7.761  53.776
31584W        W23508  32.742  23.735  50.584
31585W        W23509   8.760  45.184  51.971
31586W        W23510  28.703  29.205  53.324
31587W        W23511  30.734  17.248  49.703
31588W        W23512   6.248  14.237  51.503
31589W        W23513  32.742   5.780  50.602
31590W        W23514  14.774  27.735  50.617
31591W        W23515  20.219  17.249  53.343
31592W        W23516  39.195  12.740  53.813
31593W        W23517  19.763   0.754  53.337
31594W        W23518  21.215  45.221  49.705
31595W        W23519  34.220  40.688  52.887
31596W        W23520  47.682  25.253  53.322
31597W        W23521  11.763  33.732  53.334
31598W        W23522   0.752  44.709  50.154
31599W        W23523   3.767  14.764  51.950
31600W        W23524  22.223  19.738  49.669
31601W        W23525  20.262  12.241  51.037
31602W        W23526   3.793  24.234  52.894
31603W        W23527  41.719  42.694  52.422
31604W        W23528   6.265  26.220  50.156
31605W        W23529  24.717  37.217  53.347
31606W        W23530  30.226  34.213  53.319
31607W        W23531   5.778  39.700  50.147
31608W        W23532   0.250  41.198  53.334
31609W        W23533  36.191  34.731  49.667
31610W        W23534  32.244  17.254  53.355
31611W        W23535  38.189  38.699  52.890
31612W        W23536  30.709  20.257  51.069
31613W        W23537  15.728  24.221  51.529
31614W        W23538  11.735  16.235  49.702
31615W        W23539  29.701  19.230  51.044
31616W        W23540   7.244  31.224  53.345
31617W        W23541  11.753   6.257  53.774
31618W        W23542  15.751  18.255  53.780
31619W        W23543  15.258  19.245  52.890
31620W        W23544  16.225  11.272  51.492
31621W        W23545  29.244   0.755  53.327
31622W        W23546  11.737  38.188  52.446
31623W        W23547  29.210   6.747  50.590
31624W        W23548  41.699  31.727  50.578
31625W        W23549  14.251  16.753  52.404
31626W        W23550  44.225  34.730  50.601
31627W        W23551  37.729  41.187  52.431
31628W        W23552  19.754  45.215  51.983
31629W        W23553  22.261  38.204  53.792
31630W        W23554  40.192  20.747  51.055
31631W        W23555  48.198  24.241  51.036
31632W        W23556   2.750  23.216  50.612
31633W        W23557   3.762  18.767  52.879
31634W        W23558   1.256  15.746  50.149
31635W        W23559  17.757  31.244  52.418
31636W        W23560   9.247   0.772  51.503
31637W        W23561  12.767  14.769  51.059
31638W        W23562  33.730  32.242  51.968
31639W        W23563   4.293  21.219  52.423
31640W        W23564  33.198  41.702  51.062
31641W        W23565  36.705  22.756  53.809
31642W        W23566  37.719  26.221  51.040
31643W        W23567  48.182  26.247  50.586
31644W        W23568  16.239  13.244  51.048
31645W        W23569  28.253  36.217  50.155
31646W        W23570   1.797  25.757  52.870
31647W        W23571  23.212   0.793  53.322
31648W        W23572  26.240  28.214  53.803
31649W        W23573  24.710  15.242  53.352
31650W        W23574  39.197  32.223  49.702
31651W        W23575   1.792  11.757  52.436
31652W        W23576   6.277  17.240  51.962
31653W        W23577  22.246   3.765  53.344
31654W        W23578  47.190  26.736  52.901
31655W        W23579  37.190  39.186  51.508
31656W        W23580   0.783  23.219  50.616
31657W        W23581  26.722  44.718  50.128
31658W        W23582  19.220   9.284  52.440
31659W        W23583  43.709  35.711  52.418
31660W        W23584  19.238  35.200  51.965
31661W        W23585  42.188   8.759  51.496
31662W        W23586  15.753   8.250  51.496
31663W        W23587  33.231  36.237  52.904
31664W        W23588  15.253  45.700  52.871
31665W        W23589  20.751  36.213  52.430
31666W        W23590  31.735  11.273  51.973
31667W        W23591   5.788  30.720  52.404
31668W        W23592   5.272  43.715  50.618
31669W        W23593  22.748  13.737  52.901
31670W        W23594  18.722  10.279  49.669
31671W        W23595  17.252  11.759  53.358
31672W        W23596  20.742  42.195  50.613
31673W        W23597  24.230  21.223  50.128
31674W        W23598  34.213  38.212  50.590
31675W        W23599  36.694  23.731  52.863
31676W        W23600  36.710  28.708  52.876
31677W        W23601  23.739   4.792  51.042
31678W        W23602  33.711  15.754  51.960
31679W        W23603  10.769  15.742  53.788
31680W        W23604  38.729   0.261  52.442
31681W        W23605  35.203  42.185  51.984
31682W        W23606  43.206   1.263  50.584
31683W        W23607  28.706   0.770  51.041
31684W        W23608   5.265   8.274  51.505
31685W        W23609  33.208  15.227  50.144
31686W        W23610   7.778  15.765  52.435
31687W        W23611  34.212  24.251  53.334
31688W        W23612   9.239  21.227  49.709
31689W        W23613  42.686  12.246  52.404
31690W        W23614  22.263  46.695  51.528
31691W        W23615  47.681  38.726  49.681
31692W        W23616  46.710  18.732  52.883
31693W        W23617  36.217   9.760  52.901
31694W        W23618  20.723   5.759  49.703
31695W        W23619  43.723   6.748  51.964
31696W        W23620  38.703   0.775  49.681
31697W        W23621  45.183  29.745  53.800
31698W        W23622  25.710  24.713  53.805
31699W        W23623  34.217  41.206  52.422
31700W        W23624   2.251  34.230  49.675
31701W        W23625  27.722  19.763  52.896
31702W        W23626  35.709  42.688  51.501
31703W        W23627   0.756  35.739  51.984
31704W        W23628  44.224  17.229  53.322
31705W        W23629   4.244  11.267  53.358
31706W        W23630   2.279   8.262  50.129
31707W        W23631  17.252  33.229  52.430
31708W        W23632   3.256   3.778  53.319
31709W        W23633  17.741  16.725  51.038
31710W        W23634   2.768  47.200  52.866
31711W        W23635  10.249   7.278  53.349
31712W        W23636   9.760  27.752  53.351
31713W        W23637  32.738  41.208  52.445
31714W        W23638   1.790  22.751  52.882
31715W        W23639  35.229   6.784  50.612
31716W        W23640  35.224  18.230  53.347
31717W        W23641  47.681  41.690  53.352
31718W        W23642  33.731  17.222  53.781
31719W        W23643   5.755  36.736  50.582
31720W        W23644  12.770  16.254  50.622
31721W        W23645  46.702  42.192  49.674
31722W        W23646  14.275  20.724  53.353
31723W        W23647  20.242  25.238  53.358
31724W        W23648   8.244  46.711  53.805
31725W        W23649   0.782  45.721  53.322
31726W        W23650  41.705   6.240  51.953
31727W        W23651  14.736  39.195  50.613
31728W        W23652   0.762  40.222  51.504
31729W        W23653  37.218  43.704  51.070
31730W        W23654  28.249   6.746  51.077
31731W        W23655  16.249  17.761  53.333
31732W        W23656  12.258  24.221  52.438
31733W        W23657  41.228  29.220  49.683
31734W        W23658   9.781  36.739  53.330
31735W        W23659  39.215  41.727  51.975
31736W        W23660  24.222  29.209  53.799
31737W        W23661  20.245  41.186  49.680
31738W        W23662  17.758   8.238  50.130
31739W        W23663  22.736  47.194  50.153
31740W        W23664   7.271  36.691  53.343
31741W        W23665  31.714  40.199  53.351
31742W        W23666   7.278  44.719  52.863
31743W        W23667  42.690  16.738  51.983
31744W        W23668  25.717  46.689  52.874
31745W        W23669  47.673   8.766  52.432
31746W        W23670  11.280  13.235  52.885
31747W        W23671  29.208  27.244  50.605
31748W        W23672  38.222  38.219  50.589
31749W        W23673  34.218  28.740  52.880
31750W        W23674  42.729  11.765  50.597
31751W        W23675  17.237   4.286  49.677
31752W        W23676  48.188  29.718  51.070
31753W        W23677  20.725  43.707  53.790
31754W        W23678  16.231  25.228  52.898
31755W        W23679  10.262  18.231  50.620
31756W        W23680  45.722  24.222  49.708
31757W        W23681   3.267  44.188  49.688
31758W        W23682  14.273  35.197  52.411
31759W        W23683   4.753  20.727  50.615
31760W        W23684  12.263   7.750  49.690
31761W        W23685  22.761  44.707  53.773
31762W        W23686   4.785  29.223  49.692
31763W        W23687  44.719  42.689  50.585
31764W        W23688  40.714  14.766  51.034
31765W        W23689  39.689  11.237  49.705
31766W        W23690  37.208  13.263  51.971
31767W        W23691   3.247   8.779  50.140
31768W        W23692  41.685  34.212  53.791
31769W        W23693  20.264  30.235  51.520
31770W        W23694  25.256   5.243  52.894
31771W        W23695  21.250  17.243  53.319
31772W        W23696  47.219  40.703  51.984
31773W        W23697  45.708  44.725  49.699
31774W        W23698  48.205  11.772  51.040
31775W        W23699  45.686   7.769  51.975
31776W        W23700   2.288  26.237  51.038
31777W        W23701   5.246  24.256  51.969
31778W        W23702   1.252  25.242  51.505
31779W        W23703  29.748  15.250  53.357
31780W        W23704  33.706  29.205  51.956
31781W        W23705  41.711  36.724  53.772
31782W        W23706   1.264  25.742  51.494
31783W        W23707   5.277  36.221  50.581
31784W        W23708  18.269  36.726  51.535
31785W        W23709   4.758  18.769  53.316
31786W        W23710  26.754  11.761  50.615
31787W        W23711  48.195  22.218  50.139
31788W        W23712  34.243  35.727  51.991
31789W        W23713  47.677  29.243  51.969
31790W        W23714  36.202  16.235  53.329
31791W        W23715  43.214  16.732  52.446
31792W        W23716  35.230   9.247  53.352
31793W        W23717  10.761  10.742  51.070
31794W        W23718  27.235  47.202  51.952
31795W        W23719  46.678  19.241  52.406
31796W        W23720  34.713  22.243  49.689
31797W        W23721   9.247  17.722  51.500
31798W        W23722  16.728  18.757  49.680
31799W        W23723  28.231  40.205  52.405
31800W        W23724  45.692  30.714  51.491
31801W        W23725   3.253  13.774  52.901
31802W        W23726  47.701   4.748  51.529
31803W        W23727  47.715   2.790  51.043
31804W        W23728  43.226  41.722  50.581
31805W        W23729   7.778   9.237  52.417
31806W        W23730  35.739   8.280  53.319
31807W        W23731  26.706  16.262  52.876
31808W        W23732  30.737  27.746  50.161
31809W        W23733  27.748  20.723  53.780
31810W        W23734   3.255  45.724  52.886
31811W        W23735  22.218  26.227  53.785
31812W        W23736  35.192  39.725  50.145
31813W        W23737  16.734   9.740  50.158
31814W        W23738  30.227  20.744  50.606
31815W        W23739  37.707  30.216  51.517
31816W        W23740  27.732   1.788  50.583
31817W        W23741  19.736  47.674  52.865
31818W        W23742  31.229  31.215  51.974
31819W        W23743  20.259  33.725  53.326
31820W        W23744  46.212   1.767  50.579
31821W        W23745   8.748   4.257  51.037
31822W        W23746  48.176   2.772  51.049
31823W        W23747  36.739  15.242  52.418
31824W        W23748   3.257  40.200  53.330
31825W        W23749  17.767  21.727  49.664
31826W        W23750  31.215   1.797  51.959
31827W        W23751   9.263  32.245  52.871
31828W        W23752  17.751  48.180  51.051
31829W        W23753  39.210  23.725  50.595
31830W        W23754  35.215  37.215  52.434
31831W        W23755  28.250   6.787  49.699
31832W        W23756  41.202  26.750  52.406
31833W        W23757   0.791  31.206  51.058
31834W        W23758  44.686  45.692  50.155
31835W        W23759  40.214  39.191  50.138
31836W        W23760  20.746  20.732  51.037
31837W        W23761   1.249  18.728  51.502
31838W        W23762   1.791  24.228  50.145
31839W        W23763  12.262  23.730  53.778
31840W        W23764  45.207  42.213  50.139
31841W        W23765  17.751   4.292  52.894
31842W        W23766  25.213  37.732  51.046
31843W        W23767  32.710  47.701  52.884
31844W        W23768  31.746  43.686  53.785
31845W        W23769  21.748  29.750  49.673
31846W        W23770  12.245  26.741  53.785
31847W        W23771  10.243  32.702  50.147
31848W        W23772  45.723  46.193  49.670
31849W        W23773  37.222  12.233  51.035
31850W        W23774   2.766  26.746  52.432
31851W        W23775   3.252  16.261  49.684
31852W        W23776  19.747  39.724  50.131
31853W        W23777   8.736   5.270  52.897
31854W        W23778   9.735  40.195  53.777
31855W        W23779  19.751  11.268  53.802
31856W        W23780   9.775  26.240  50.137
31857W        W23781  36.197  26.237  50.582
31858W        W23782  10.242  23.744  49.676
31859W        W23783  25.215  45.693  51.977
31860W        W23784  24.732  19.225  50.612
31861W        W23785  31.746  16.733  51.534
31862W        W23786  13.265  24.738  51.985
31863W        W23787  21.732  19.736  53.781
31864W        W23788  43.695   0.282  53.344
31865W        W23789  41.717  34.714  49.696
31866W        W23790  41.221  29.208  53.773
31867W        W23791  38.714   5.291  50.619
31868W        W23792  18.223  36.220  52.404
31869W        W23793  32.700  40.699  51.494
31870W        W23794  40.698   8.281  52.431
31871W        W23795   7.288  41.711  51.522
31872W        W23796  37.213  36.211  49.709
31873W        W23797  32.737  19.225  49.691
31874W        W23798  12.245  31.246  51.947
31875W        W23799   9.748   9.753  51.510
31876W        W23800   8.736  31.727  53.786
31877W        W23801  29.733  32.226  51.497
31878W        W23802  24.718  10.741  50.138
31879W        W23803   5.770  22.735  53.329
31880W        W23804  24.733  21.749  53.339
31881W        W23805   8.767  30.747  51.952
31882W        W23806   7.748   7.780  51.502
31883W        W23807  40.698  47.684  50.590
31884W        W23808  26.737  29.745  53.798
31885W        W23809  41.208  30.729  53.316
31886W        W23810  27.241  43.204  51.054
31887W        W23811  16.228  13.774  51.973
31888W        W23812   0.264  35.230  50.127
31889W        W23813  38.713  36.202  52.440
31890W        W23814  21.736  41.182  49.703
31891W        W23815  19.740  13.261  52.867
31892W        W23816  32.244  26.233  52.409
31893W        W23817  13.271   1.763  53.815
31894W        W23818   1.766  35.211  52.410
31895W        W23819  46.677   0.791  52.418
31896W        W23820  46.690  29.249  51.965
31897W        W23821  28.204  10.772  50.601
31898W        W23822   6.241  13.256  50.160
31899W        W23823  36.696  22.717  49.669
31900W        W23824  43.721  19.225  53.806
31901W        W23825  20.720  32.733  50.607
31902W        W23826   8.237  36.212  51.522
31903W        W23827  18.722  21.726  52.444
31904W        W23828  27.235  33.700  52.885
31905W        W23829  45.710  21.227  50.132
31906W        W23830   2.766  30.719  51.510
31907W        W23831  40.229  18.261  49.708
31908W        W23832  16.249  24.219  49.696
31909W        W23833  20.241  35.212  49.690
31910W        W23834  22.742   8.751  53.342
31911W        W23835  39.693  42.716  51.975
31912W        W23836  18.226  17.261  53.784
31913W        W23837  40.196  12.245  51.491
31914W        W23838  20.726  33.718  51.065
31915W        W23839  33.219  27.242  50.155
31916W        W23840   9.272  48.197  50.586
31917W        W23841  30.202  40.217  51.048
31918W        W23842  21.719  29.749  53.817
31919W        W23843   9.265  45.677  50.138
31920W        W23844  23.240  27.741  50.122
31921W        W23845  32.206  20.739  50.608
31922W        W23846  22.719  42.705  53.783
31923W        W23847  27.731  30.711  49.706
31924W        W23848  29.718  33.700  51.059
31925W        W23849  31.206  18.759  53.785
31926W        W23850   6.288  36.724  50.584
31927W        W23851  26.253  30.232  51.949
31928W        W23852  25.716  15.230  51.064
31929W        W23853  35.734   1.778  50.138
31930W        W23854  21.254  42.711  51.072
31931W        W23855   4.270  22.735  52.428
31932W        W23856   7.282  42.190  50.165
31933W        W23857   2.289  39.211  51.510
31934W        W23858   0.796  25.256  50.615
31935W        W23859  27.732  26.733  49.706
31936W        W23860  42.684  23.217  51.982
31937W        W23861  46.190  26.214  49.699
31938W        W23862  37.700   4.248  50.121
31939W        W23863  41.699  16.732  53.810
31940W        W23864  27.724  13.763  52.863
31941W        W23865  11.262   0.757  52.867
31942W        W23866  43.695  21.731  49.698
31943W        W23867  23.719  33.238  51.046
31944W        W23868   6.779  25.246  52.433
31945W        W23869  36.200  38.231  49.694
31946W        W23870   9.237  19.741  50.598
31947W        W23871  30.239  16.253  51.078
31948W        W23872  21.741   6.780  51.039
31949W        W23873  38.202  45.709  51.976
31950W        W23874  19.754  36.707  53.341
31951W        W23875  43.192  36.222  50.127
31952W        W23876  16.269  13.745  52.445
31953W        W23877  41.209   1.264  51.061
31954W        W23878  16.234  38.192  53.319
31955W        W23879   8.244  41.221  50.610
31956W        W23880  39.709  11.740  50.123
31957W        W23881  23.717  17.238  50.149
31958W        W23882  18.236  28.716  51.518
31959W        W23883  25.717  34.197  53.338
31960W        W23884  35.211  33.213  53.774
31961W        W23885   8.264   2.265  51.527
31962W        W23886  36.238  12.737  53.355
31963W        W23887  45.181  22.730  52.415
31964W        W23888  29.749  13.764  52.407
31965W        W23889  12.254   8.742  53.343
31966W        W23890   4.779  17.254  53.334
31967W        W23891  28.232  14.247  53.780
31968W        W23892  18.253   2.771  53.345
31969W        W23893  23.724  16.244  51.519
31970W        W23894   3.281   4.247  50.582
31971W        W23895  16.738   9.272  51.044
31972W        W23896   9.236  34.201  51.063
31973W        W23897  38.227   5.260  51.067
31974W        W23898  45.218  22.722  51.079
31975W        W23899  13.745   4.253  51.513
31976W        W23900  40.198  29.231  53.813
31977W        W23901  17.730  21.260  51.985
31978W        W23902  37.204  43.700  51.969
31979W        W23903  37.197   3.780  52.872
31980W        W23904  25.716  11.254  50.611
31981W        W23905  19.224  25.743  49.684
31982W        W23906   0.282  29.718  51.954
31983W        W23907   4.750  15.758  53.327
31984W        W23908   0.775  33.222  50.144
31985W        W23909  22.231  42.698  51.058
31986W        W23910  17.254  35.719  51.054
31987W        W23911  25.753  22.240  51.055
31988W        W23912  17.763  18.250  52.420
31989W        W23913  23.216  12.271  51.064
31990W        W23914  14.268  34.238  53.774
31991W        W23915  31.723   5.778  52.864
31992W        W23916  27.743   9.271  49.666
31993W        W23917  10.239  33.201  53.335
31994W        W23918  37.731  41.714  50.591
31995W        W23919  41.196   8.270  53.796
31996W        W23920   8.744  45.723  52.408
31997W        W23921  14.760   2.283  53.324
31998W        W23922   0.268  37.719  52.418
31999W        W23923   4.764   5.762  52.893
32000W        W23924   4.262   7.749  50.610
32001W        W23925  18.739  26.709  53.789
32002W        W23926  38.711  11.278  53.343
32003W        W23927  36.719  14.744  49.703
32004W        W23928  21.236  40.716  50.621
32005W        W23929   8.261   4.245  52.881
32006W        W23930  20.261  26.746  51.513
32007W        W23931   1.759  18.765  49.697
32008W        W23932  10.236  36.709  53.341
32009W        W23933  13.243  13.242  53.358
32010W        W23934  16.723   3.270  51.527
32011W        W23935  31.728   0.259  51.065
32012W        W23936   0.790  47.718  50.150
32013W        W23937  40.704  25.222  49.679
32014W        W23938  29.749  27.206  49.667
32015W        W23939   7.740  11.256  51.947
32016W        W23940  36.235  47.219  53.359
32017W        W23941   0.291  15.273  53.801
32018W        W23942  13.742   2.263  51.062
32019W        W23943  27.739  32.703  50.165
32020W        W23944  45.225  33.206  52.887
32021W        W23945  36.205  31.234  51.985
32022W        W23946  36.198  20.737  53.801
32023W        W23947  42.204  15.737  52.897
32024W        W23948  28.730  28.237  51.953
32025W        W23949  18.757  26.241  50.591
32026W        W23950  48.216  21.718  50.611
32027W        W23951  15.744  42.224  52.403
32028W        W23952  44.196  19.722  51.532
32029W        W23953   0.795  22.255  51.503
32030W        W23954  25.715  13.270  51.057
32031W        W23955  13.256  37.199  51.955
32032W        W23956  33.725  38.696  51.507
32033W        W23957  33.707  18.265  52.442
32034W        W23958   8.245  29.717  52.887
32035W        W23959  21.239  44.182  53.802
32036W        W23960  43.183  43.714  50.586
32037W        W23961   1.770   4.765  51.506
32038W        W23962  48.198  24.735  51.075
32039W        W23963  19.759  34.734  51.491
32040W        W23964  48.199   5.775  52.885
32041W        W23965  13.252  22.218  50.135
32042W        W23966  29.233  42.715  53.815
32043W        W23967  31.719  29.721  52.897
32044W        W23968  24.726  32.716  50.607
32045W        W23969  10.239  41.185  53.806
32046W        W23970  18.747  14.731  50.579
32047W        W23971  14.770  11.253  53.776
32048W        W23972  17.745  42.190  50.607
32049W        W23973  46.689  11.238  50.156
32050W        W23974   1.787  13.259  53.322
32051W        W23975  10.757  19.765  50.586
32052W        W23976  28.732   9.238  51.516
32053W        W23977  30.723  23.227  50.596
32054W        W23978  21.241  19.259  52.885
32055W        W23979  41.701  24.232  51.053
32056W        W23980   7.777  26.252  50.621
32057W        W23981  12.730  10.733  52.416
32058W        W23982  26.707  30.245  51.982
32059W        W23983  44.207  32.697  52.428
32060W        W23984  41.230  45.709  49.700
32061W        W23985   2.247  35.708  52.889
32062W        W23986  16.737  24.253  50.150
32063W        W23987   6.252  23.230  51.979
32064W        W23988  47.187  40.713  52.887
32065W        W23989  44.193  37.701  51.960
32066W        W23990  32.709  12.756  51.037
32067W        W23991  25.756  28.733  52.418
32068W        W23992   1.779  41.198  51.496
32069W        W23993   1.269  13.273  51.514
32070W        W23994  31.725   5.261  49.668
32071W        W23995  46.185  20.230  50.133
32072W        W23996   9.249  19.265  51.512
32073W        W23997  10.769   9.249  52.412
32074W        W23998  21.255   8.265  51.985
32075W        W23999  36.228  47.176  50.126
32076W        W24000  43.710   4.273  53.775
32077W        W24001  42.692  13.736  51.967
32078W        W24002  22.260  46.721  50.592
32079W        W24003  36.738  21.221  52.882
32080W        W24004   7.248  29.740  53.814
32081W        W24005   8.283  41.726  52.417
32082W        W24006   5.741  14.265  50.133
32083W        W24007  30.216  23.251  51.956
32084W        W24008  37.735  38.223  52.424
32085W        W24009  13.741  36.230  53.338
32086W        W24010  12.768  45.198  52.410
32087W        W24011  30.226  20.228  51.055
32088W        W24012  43.187  12.752  49.704
32089W        W24013  38.223  12.764  53.794
32090W        W24014  35.727  45.213  51.037
32091W        W24015   9.740  20.742  50.620
32092W        W24016  27.238   8.242  50.127
32093W        W24017  31.731   2.779  53.346
32094W        W24018  35.193  16.253  53.788
32095W        W24019   1.752  20.241  53.353
32096W        W24020  48.205  19.243  50.129
32097W        W24021  32.711  46.196  50.140
32098W        W24022   9.261  18.223  50.613
32099W        W24023  27.745  18.729  52.411
32100W        W24024  19.233  36.699  50.154
32101W        W24025  17.239   5.779  50.603
32102W        W24026  28.705   0.273  50.159
32103W        W24027   0.278  21.259  53.812
32104W        W24028  14.743  29.744  52.438
32105W        W24029  24.752  26.251  50.598
32106W        W24030  14.230  41.186  53.320
32107W        W24031   3.276  40.209  51.078
32108W        W24032  35.713  47.184  52.448
32109W        W24033  12.233  39.731  52.430
32110W        W24034  25.715  13.238  51.952
32111W        W24035  28.211   6.780  51.524
32112W        W24036  15.239  45.206  50.610
32113W        W24037  43.228   3.767  49.672
32114W        W24038  24.743  40.216  49.708
32115W        W24039  29.226  18.261  52.437
32116W        W24040  46.698  16.240  52.902
32117W        W24041  31.731   2.249  53.778
32118W        W24042   8.251  15.764  50.588
32119W        W24043  46.210   4.765  50.162
32120W        W24044  44.726  37.199  51.965
32121W        W24045   3.773  11.733  51.969
32122W        W24046  47.181  35.203  51.077
32123W        W24047   0.292   9.753  51.955
32124W        W24048  44.215  28.740  50.612
32125W        W24049  29.703   4.257  50.603
32126W        W24050  29.223  28.223  49.690
32127W        W24051  44.722  32.240  52.424
32128W        W24052  17.732  11.773  52.425
32129W        W24053  34.202  27.216  50.131
32130W        W24054  17.760  18.756  52.429
32131W        W24055  37.737  23.725  52.898
32132W        W24056  19.245  38.205  52.411
32133W        W24057  31.225  18.261  52.864
32134W        W24058  47.714  13.730  52.877
32135W        W24059  31.202  44.203  51.980
32136W        W24060  23.227   2.249  51.035
32137W        W24061  12.250  10.253  51.521
32138W        W24062  28.218  20.747  52.437
32139W        W24063  12.267  11.237  51.040
32140W        W24064  13.732  15.731  51.963
32141W        W24065  33.232  27.726  51.493
32142W        W24066   0.266  14.756  53.326
32143W        W24067  23.216   0.786  50.606
32144W        W24068  26.753  10.261  50.140
32145W        W24069  19.235  13.238  52.901
32146W        W24070  29.240  22.744  52.436
32147W        W24071   2.755  36.695  51.068
32148W        W24072  14.751  25.735  51.511
32149W        W24073   9.278  43.201  50.582
32150W        W24074  28.711  22.730  52.424
32151W        W24075  30.213  37.718  52.445
32152W        W24076  33.226  34.700  50.578
32153W        W24077  16.267  43.196  52.879
32154W        W24078  14.748  48.182  51.498
32155W        W24079  18.756  43.225  49.685
32156W        W24080   3.749   8.754  51.517
32157W        W24081   2.775  11.736  51.510
32158W        W24082  41.691  47.708  51.518
32159W        W24083  38.721  31.731  53.812
32160W        W24084  25.252  31.741  52.403
32161W        W24085   1.783   8.252  50.149
32162W        W24086  36.223  27.710  53.808
32163W        W24087  29.202   7.754  51.989
32164W        W24088  38.731  15.225  50.123
32165W        W24089  14.274  10.249  51.065
32166W        W24090  34.720  27.713  51.525
32167W        W24091  37.232  40.190  50.603
32168W        W24092  10.757   1.777  53.787
32169W        W24093  26.213  43.681  52.436
32170W        W24094   1.786  19.754  49.665
32171W        W24095   6.762  29.251  53.329
32172W        W24096   6.751  18.757  52.413
32173W        W24097  11.257  47.700  53.796
32174W        W24098  20.747  22.230  51.534
32175W        W24099  29.732  20.256  49.696
32176W        W24100  26.706   4.768  52.875
32177W        W24101  47.718   7.259  51.527
32178W        W24102  45.719   1.758  53.795
32179W        W24103  48.191  23.760  51.501
32180W        W24104  29.204  15.726  50.602
32181W        W24105  12.260  37.705  51.039
32182W        W24106  33.238  36.734  53.776
32183W        W24107  29.225  44.685  52.444
32184W        W24108  34.233  15.241  53.787
32185W        W24109  30.247  22.742  51.065
32186W        W24110  14.256   2.267  50.152
32187W        W24111  10.742  23.216  52.439
32188W        W24112  37.215   8.766  52.863
32189W        W24113  44.721  42.206  49.666
32190W        W24114  41.198  11.281  51.985
32191W        W24115  14.262  45.684  51.058
32192W        W24116   3.251  39.707  51.992
32193W        W24117  41.229  10.737  53.358
32194W        W24118  19.766  40.207  51.502
32195W        W24119  32.242  28.217  53.322
32196W        W24120  11.238  34.719  51.956
32197W        W24121   5.272  42.189  52.894
32198W        W24122  45.704  44.226  53.326
32199W        W24123  17.748  19.241  50.597
32200W        W24124   2.247   5.773  51.984
32201W        W24125  21.731  15.756  53.814
32202W        W24126  11.752  41.724  53.803
32203W        W24127   0.754  30.721  50.139
32204W        W24128  22.230  40.711  51.491
32205W        W24129  40.701  24.214  51.493
32206W        W24130  39.726  41.212  52.898
32207W        W24131  42.225  45.713  53.793
32208W        W24132  29.746  29.211  52.887
32209W        W24133  15.263   0.768  50.147
32210W        W24134  20.244  26.707  51.987
32211W        W24135   1.262  12.230  52.434
32212W        W24136  46.681  12.242  51.991
32213W        W24137  44.716  36.692  50.133
32214W        W24138  11.741  10.266  49.691
32215W        W24139  21.758  16.725  53.815
32216W        W24140  14.266  15.238  53.334
32217W        W24141  32.738   3.262  51.049
32218W        W24142   5.779   2.775  51.978
32219W        W24143  29.209  31.248  52.428
32220W        W24144  12.738  23.260  52.422
32221W        W24145  10.263  42.724  52.422
32222W        W24146  13.237  15.272  49.689
32223W        W24147  35.210  30.201  51.532
32224W        W24148  44.188  45.711  53.328
32225W        W24149  35.732  43.716  51.062
32226W        W24150  28.737   7.741  51.077
32227W        W24151  38.187  45.177  53.333
32228W        W24152   2.776  39.703  50.157
32229W        W24153   0.265   7.285  52.886
32230W        W24154  34.719   0.783  51.533
32231W        W24155  42.727  40.222  50.161
32232W        W24156  16.727  13.245  53.326
32233W        W24157  22.246  18.248  51.076
32234W        W24158  10.240  30.707  49.696
32235W        W24159  26.726   8.240  53.811
32236W        W24160  25.236  19.256  50.593
32237W        W24161  35.208  28.240  50.129
32238W        W24162  24.220   5.263  53.342
32239W        W24163  25.257   5.789  49.700
32240W        W24164  28.712  36.193  50.138
32241W        W24165  37.233  15.236  49.707
32242W        W24166   9.248  41.213  52.867
32243W        W24167  33.206   3.778  51.053
32244W        W24168  34.731   6.282  51.948
32245W        W24169  46.678  24.753  52.880
32246W        W24170  21.731  36.694  50.589
32247W        W24171  22.729  20.721  52.882
32248W        W24172  15.229  47.215  52.862
32249W        W24173  43.686  23.743  53.813
32250W        W24174  36.694  32.214  50.152
32251W        W24175   5.762  22.239  51.503
32252W        W24176  30.237  43.189  51.498
32253W        W24177  27.754   1.290  52.873
32254W        W24178  31.247  18.224  50.581
32255W        W24179  42.214  43.688  50.604
32256W        W24180   8.274  37.719  52.867
32257W        W24181  44.677  22.253  50.604
32258W        W24182   4.761  36.220  51.046
32259W        W24183  36.724  44.715  53.791
32260W        W24184  13.274  24.216  51.965
32261W        W24185   6.743  29.725  51.494
32262W        W24186  14.228   8.783  50.610
32263W        W24187  24.234  10.277  52.409
32264W        W24188  28.731  38.190  50.591
32265W        W24189  48.213  28.238  51.964
32266W        W24190  46.178  27.249  51.953
32267W        W24191  14.241  40.203  51.527
32268W        W24192  28.737  19.257  53.348
32269W        W24193  13.251  46.698  50.139
32270W        W24194   0.770  37.190  53.817
32271W        W24195  17.747  42.724  53.338
32272W        W24196  38.732  28.729  52.893
32273W        W24197   6.270  27.734  49.686
32274W        W24198   6.743  36.206  49.709
32275W        W24199  36.697  44.725  50.128
32276W        W24200  17.264  11.743  52.418
32277W        W24201  35.705   5.251  52.871
32278W        W24202  31.246  30.216  51.042
32279W        W24203   1.264  32.198  51.523
32280W        W24204  32.727  11.764  50.612
32281W        W24205   5.285  19.760  51.986
32282W        W24206  22.252  39.192  51.047
32283W        W24207   0.254  36.196  50.154
32284W        W24208   2.248  22.258  53.782
32285W        W24209   5.259   0.273  52.892
32286W        W24210  19.228   1.796  50.148
32287W        W24211  24.734  42.718  50.137
32288W        W24212  40.212  32.707  50.615
32289W        W24213  31.733   0.269  49.677
32290W        W24214  39.189  43.206  50.587
32291W        W24215  19.237  41.197  51.963
32292W        W24216   4.282  23.757  49.693
32293W        W24217  36.727  14.266  53.813
32294W        W24218  30.746  23.241  50.166
32295W        W24219   2.772  38.236  51.074
32296W        W24220  24.215   3.257  52.409
32297W        W24221  27.750  45.191  51.953
32298W        W24222  24.228  24.242  50.601
32299W        W24223   5.752  17.759  53.357
32300W        W24224   3.279  44.718  52.898
32301W        W24225  13.271  36.730  51.500
32302W        W24226  29.741   7.248  52.429
32303W        W24227  15.762   0.289  51.502
32304W        W24228  41.221  41.718  52.442
32305W        W24229  22.713  45.692  53.339
32306W        W24230   2.765  40.687  52.868
32307W        W24231  16.226  34.215  51.038
32308W        W24232  43.227   0.269  52.865
32309W        W24233  31.719  15.257  53.320
32310W        W24234  38.220  18.748  52.418
32311W        W24235  33.739  37.211  51.530
32312W        W24236  14.764  24.227  51.036
32313W        W24237  13.266  31.230  50.134
32314W        W24238  27.234  22.758  51.496
32315W        W24239  22.752   9.764  50.617
32316W        W24240  29.206  40.205  50.133
32317W        W24241  35.700   4.765  53.807
32318W        W24242  31.224  23.729  51.528
32319W        W24243  19.748   0.773  52.415
32320W        W24244  11.761  14.738  51.976
32321W        W24245  27.736  26.748  50.122
32322W        W24246   5.260  19.767  52.901
32323W        W24247   2.254  16.728  52.437
32324W        W24248  42.228   5.746  52.863
32325W        W24249  10.780  23.760  50.602
32326W        W24250   3.257   8.239  53.793
32327W        W24251  40.230  20.254  51.957
32328W        W24252  24.257   0.794  51.060
32329W        W24253  20.742  11.749  50.140
32330W        W24254  31.712  27.727  51.966
32331W        W24255  47.689  33.198  52.419
32332W        W24256  10.236  28.244  53.778
32333W        W24257   7.279  25.248  53.794
32334W        W24258   9.779  20.221  53.320
32335W        W24259  43.710  36.224  52.448
32336W        W24260  45.678  42.200  53.323
32337W        W24261  37.197  44.717  50.138
32338W        W24262  39.722  45.686  52.900
32339W        W24263  43.181   4.279  51.962
32340W        W24264  46.209  22.752  51.063
32341W        W24265  36.235   2.761  49.675
32342W        W24266  39.718   8.779  52.898
32343W        W24267  39.221  24.237  51.501
32344W        W24268  32.700  23.223  50.597
32345W        W24269  29.709  34.218  52.863
32346W        W24270  36.718  12.778  53.350
32347W        W24271  14.775   6.264  52.865
32348W        W24272  39.196   5.263  53.357
32349W        W24273  32.199   1.295  49.709
32350W        W24274   9.244   2.784  49.706
32351W        W24275   2.775   0.276  51.532
32352W        W24276  29.251  18.261  49.705
32353W        W24277  19.738  12.749  53.773
32354W        W24278  42.189  33.738  51.511
32355W        W24279  42.195  37.692  49.708
32356W        W24280  28.724   0.299  51.525
32357W        W24281  47.692  29.738  53.812
32358W        W24282  34.226  40.686  51.043
32359W        W24283  14.258  28.712  51.045
32360W        W24284  31.738  37.203  51.524
32361W        W24285  43.704  16.751  52.896
32362W        W24286   7.738  30.245  53.325
32363W        W24287  23.726   6.746  49.700
32364W        W24288   1.279  43.713  53.805
32365W        W24289  39.228   4.246  53.791
32366W        W24290  43.696   0.277  53.784
32367W        W24291  26.725   1.269  51.990
32368W        W24292  20.227  41.704  51.061
32369W        W24293  20.733   4.744  50.578
32370W        W24294   9.780  19.226  51.953
32371W        W24295  32.703  24.251  49.667
32372W        W24296  25.741   6.265  53.357
32373W        W24297   6.241  37.718  51.495
32374W        W24298  11.249  32.239  53.785
32375W        W24299  45.686  47.672  51.989
32376W        W24300  18.739  25.737  50.617
32377W        W24301  45.185  17.758  51.034
32378W        W24302   6.275  20.225  53.809
32379W        W24303   1.261  29.250  51.523
32380W        W24304  28.216   4.773  51.952
32381W        W24305  18.267  43.709  51.948
32382W        W24306  31.214  38.687  52.896
32383W        W24307   6.275   9.767  51.986
32384W        W24308  26.232   5.782  49.704
32385W        W24309   5.788  46.714  51.960
32386W        W24310  36.736   9.255  50.598
32387W        W24311  30.712  22.227  51.531
32388W        W24312   8.281  17.257  52.426
32389W        W24313  43.682  19.240  51.982
32390W        W24314  34.718  19.221  51.499
32391W        W24315  12.265  27.714  52.446
32392W        W24316  26.220   4.285  49.697
32393W        W24317  31.733   5.272  52.873
32394W        W24318  23.231  46.715  52.905
32395W        W24319  10.753  40.706  50.160
32396W        W24320  10.744  22.239  51.980
32397W        W24321  42.722  31.203  49.689
32398W        W24322  24.231  35.225  52.899
32399W        W24323  34.705  17.749  51.961
32400W        W24324  45.183   6.744  51.043
32401W        W24325  38.220   1.255  52.866
32402W        W24326  11.281  33.229  53.351
32403W        W24327  41.705  25.252  50.619
32404W        W24328  28.731  19.267  51.074
32405W        W24329   9.768  46.187  52.894
32406W        W24330  18.253  18.224  50.136
32407W        W24331  30.736  35.725  49.666
32408W        W24332  25.736  11.736  52.892
32409W        W24333  34.195   0.281  53.346
32410W        W24334  35.703  34.742  52.427
32411W        W24335  13.738   0.759  49.694
32412W        W24336  32.223  12.741  53.350
32413W        W24337  36.233  12.279  49.708
32414W        W24338  11.270   9.284  51.950
32415W        W24339  33.223  42.223  53.317
32416W        W24340   5.756  23.259  52.438
32417W        W24341  26.221  19.728  51.957
32418W        W24342  30.704  19.223  49.692
32419W        W24343  20.723  24.758  51.515
32420W        W24344  16.229  32.738  51.499
32421W        W24345  39.710  43.692  49.697
32422W        W24346  25.221  31.221  52.900
32423W        W24347   7.744   1.790  53.791
32424W        W24348  13.247  26.744  50.586
32425W        W24349  11.281  16.731  50.623
32426W        W24350   3.772   0.763  50.152
32427W        W24351  19.740  13.738  51.975
32428W        W24352  26.754  14.741  51.525
32429W        W24353   9.241   7.739  52.870
32430W        W24354  34.702  17.269  53.800
32431W        W24355  25.709  12.277  53.787
32432W        W24356   6.740  29.726  51.990
32433W        W24357  22.249  17.759  50.150
32434W        W24358   5.779  43.721  52.403
32435W        W24359  34.220  15.773  51.512
32436W        W24360  47.204   3.763  52.443
32437W        W24361  27.227  28.712  53.350
32438W        W24362  38.699  41.704  53.346
32439W        W24363  35.197  33.712  49.668
32440W        W24364  29.237  24.224  52.894
32441W        W24365   9.240  12.278  51.517
32442W        W24366  36.739  22.238  51.054
32443W        W24367  12.749   2.248  50.147
32444W        W24368   1.255   3.293  52.863
32445W        W24369  26.711  15.250  50.144
32446W        W24370  40.693   2.291  53.807
32447W        W24371  46.702  43.180  51.948
32448W        W24372  40.694   8.745  52.903
32449W        W24373  32.227  29.708  53.786
32450W        W24374  39.214  31.716  53.787
32451W        W24375  33.741  25.722  51.976
32452W        W24376   1.753  18.261  53.785
32453W        W24377   9.252  45.212  51.948
32454W        W24378  41.695  25.249  53.814
32455W        W24379  42.181  23.735  51.972
32456W        W24380  17.268  16.244  52.891
32457W        W24381  43.205  17.746  50.147
32458W        W24382  35.735  39.214  52.870
32459W        W24383   5.249  18.220  49.695
32460W        W24384  44.683  39.719  52.440
32461W        W24385  37.695   5.277  51.511
32462W        W24386  15.767  45.182  50.139
32463W        W24387  39.231  19.239  53.357
32464W        W24388  17.258  10.744  49.700
32465W        W24389  21.216  41.729  53.341
32466W        W24390  20.249  23.256  51.497
32467W        W24391  25.716  15.766  50.132
32468W        W24392  47.213  20.748  52.894
32469W        W24393  14.757   5.262  53.781
32470W        W24394  18.742  46.183  51.947
32471W        W24395  33.721  14.755  51.981
32472W        W24396  23.723  17.755  52.880
32473W        W24397  42.714  29.725  50.157
32474W        W24398  34.201  40.232  49.677
32475W        W24399  34.712  29.211  52.420
32476W        W24400   7.248  14.262  50.609
32477W        W24401  35.211   6.241  51.989
32478W        W24402  15.774  31.711  51.510
32479W        W24403  20.729  34.718  51.961
32480W        W24404  43.699  41.719  51.518
32481W        W24405   5.780  22.715  52.875
32482W        W24406  41.231  28.728  51.034
32483W        W24407  40.727  12.742  53.328
32484W        W24408   0.279   1.250  52.413
32485W        W24409  39.718  31.727  52.419
32486W        W24410  33.206  24.235  50.607
32487W        W24411  40.732  38.216  51.070
32488W        W24412   4.293  28.705  49.680
32489W        W24413  19.728   6.775  52.880
32490W        W24414  28.741  33.195  49.665
32491W        W24415  22.746  21.227  52.894
32492W        W24416  47.716  39.222  50.131
32493W        W24417  20.245  40.185  49.670
32494W        W24418  21.227  36.210  51.954
32495W        W24419  15.730  47.706  52.425
32496W        W24420  30.744  25.217  53.321
32497W        W24421  16.260  43.718  53.811
32498W        W24422  13.745  23.257  50.582
32499W        W24423   8.777   3.789  50.133
32500W        W24424   3.277  23.754  51.496
32501W        W24425  46.676  33.696  50.121
32502W        W24426  23.741  38.729  52.900
32503W        W24427  32.246   4.257  51.981
32504W        W24428  33.724  20.254  53.793
32505W        W24429  30.701  17.766  50.604
32506W        W24430  31.714  14.241  52.438
32507W        W24431   1.281  18.243  52.414
32508W        W24432   3.757  38.718  50.130
32509W        W24433  21.250  29.703  53.360
32510W        W24434  45.217  26.730  51.976
32511W        W24435  31.200   3.770  53.774
32512W        W24436   6.281  16.723  52.404
32513W        W24437  23.741  39.698  51.050
32514W        W24438  15.766  46.721  51.522
32515W        W24439  30.220  18.766  49.667
32516W        W24440  12.238  16.770  50.581
32517W        W24441   0.263  21.217  51.528
32518W        W24442  21.715  28.243  51.535
32519W        W24443  39.204  32.239  51.952
32520W        W24444   9.240  43.692  51.951
32521W        W24445  48.173  16.235  51.970
32522W        W24446  35.208  42.196  49.666
32523W        W24447  14.770  13.734  51.498
32524W        W24448  44.182   2.282  53.317
32525W        W24449  18.253  31.729  50.622
32526W        W24450  17.267  22.229  52.880
32527W        W24451  39.691  12.752  53.804
32528W        W24452  12.738  40.722  51.512
32529W        W24453  16.741  17.760  51.493
32530W        W24454  40.731  23.257  49.682
32531W        W24455  11.254  26.239  53.814
32532W        W24456  46.176  41.720  52.431
32533W        W24457  30.701  32.243  53.806
32534W        W24458  12.759  46.175  51.056
32535W        W24459   8.766   9.266  49.700
32536W        W24460  11.774  17.725  52.885
32537W        W24461  10.755  35.199  50.132
32538W        W24462  28.220  35.695  50.620
32539W        W24463  18.257  21.260  51.961
32540W        W24464   9.243  23.236  53.361
32541W        W24465  28.253  26.719  51.946
32542W        W24466  44.219   3.248  51.970
32543W        W24467  37.733  14.749  49.679
32544W        W24468  10.255  27.242  50.587
32545W        W24469  35.231  12.235  53.319
32546W        W24470  12.736  11.257  52.897
32547W        W24471   5.280   9.262  53.789
32548W        W24472  44.193  14.264  50.583
32549W        W24473  38.725  10.240  49.682
32550W        W24474  31.698  27.739  50.580
32551W        W24475  41.699   3.266  50.609
32552W        W24476  11.253  43.200  52.438
32553W        W24477  46.190  48.209  52.866
32554W        W24478  12.735  15.734  49.673
32555W        W24479  12.746  16.240  51.061
32556W        W24480  27.747   1.295  53.353
32557W        W24481  14.241   2.788  49.697
32558W        W24482  47.698  35.693  52.889
32559W        W24483  39.195  40.707  51.964
32560W        W24484  33.240  37.727  51.494
32561W        W24485  43.218  31.200  52.432
32562W        W24486  40.228   6.776  50.161
32563W        W24487  34.221  23.253  49.677
32564W        W24488  33.199  15.250  51.498
32565W        W24489   3.773   3.754  51.958
32566W        W24490  23.716  30.742  50.131
32567W        W24491  47.696  27.236  50.143
32568W        W24492  20.239  46.210  52.430
32569W        W24493  25.745   7.761  52.413
32570W        W24494  28.703  36.722  53.322
32571W        W24495  17.250   7.781  51.495
32572W        W24496  47.173   8.237  53.353
32573W        W24497  18.221  18.244  49.664
32574W        W24498  26.241  25.237  50.617
32575W        W24499  25.712  19.728  51.076
32576W        W24500  21.220  42.220  52.885
32577W        W24501  33.228   0.772  50.143
32578W        W24502  27.739   8.736  53.811
32579W        W24503   8.240   9.749  53.320
32580W        W24504  44.696  47.180  50.162
32581W        W24505  41.211   6.248  51.521
32582W        W24506  44.692   6.758  50.162
32583W        W24507   0.260   6.759  52.405
32584W        W24508  48.216  13.246  52.875
32585W        W24509  48.208  23.226  51.946
32586W        W24510   1.776  39.206  51.044
32587W        W24511  31.731   6.258  51.511
32588W        W24512   0.289  27.206  51.981
32589W        W24513  33.718  13.733  50.590
32590W        W24514  29.737  22.755  50.142
32591W        W24515  26.229  16.726  52.429
32592W        W24516  33.694  15.244  51.079
32593W        W24517  42.215  16.235  51.529
32594W        W24518  27.736  36.193  51.056
32595W        W24519  44.695  34.729  51.494
32596W        W24520  25.747  47.675  52.447
32597W        W24521   8.736  44.683  49.678
32598W        W24522  35.715  19.740  53.792
32599W        W24523  14.239   1.283  53.318
32600W        W24524  28.236  31.247  50.153
32601W        W24525   9.280  39.708  49.687
32602W        W24526   7.255   2.293  50.611
32603W        W24527  22.741  10.777  51.990
32604W        W24528  43.727   8.778  50.588
32605W        W24529  28.745  26.215  50.598
32606W        W24530   9.266  40.189  53.810
32607W        W24531   0.264  39.732  51.055
32608W        W24532  25.719  47.721  53.359
32609W        W24533   4.772  14.761  52.875
32610W        W24534  27.228  48.218  51.065
32611W        W24535  45.219  36.691  50.581
32612W        W24536   8.743   1.757  53.802
32613W        W24537  14.757  16.270  50.126
32614W        W24538  21.234  35.704  51.052
32615W        W24539   2.750  21.224  49.678
32616W        W24540   6.753  38.728  53.806
32617W        W24541  44.712   2.252  49.666
32618W        W24542  36.692   2.778  53.804
32619W        W24543  11.750   5.275  51.508
32620W        W24544  28.748  45.678  52.418
32621W        W24545  44.726  34.704  50.597
32622W        W24546  18.736  15.769  53.785
32623W        W24547  35.738   4.766  50.595
32624W        W24548   1.797  27.742  53.798
32625W        W24549  47.207  10.273  51.520
32626W        W24550  29.707  30.725  49.698
32627W        W24551   6.284  22.733  49.685
32628W        W24552  19.265   0.254  51.950
32629W        W24553   5.250  39.700  49.705
32630W        W24554   2.291  15.257  52.446
32631W        W24555   9.772   5.264  52.866
32632W        W24556  16.762  12.738  53.345
32633W        W24557  28.216  19.723  53.330
32634W        W24558   0.795  17.765  50.128
32635W        W24559  43.679  48.213  51.064
32636W        W24560  43.190   6.251  49.671
32637W        W24561  42.697  26.730  52.442
32638W        W24562  46.206  30.247  53.808
32639W        W24563  48.182  30.725  51.973
32640W        W24564  22.219  23.239  52.438
32641W        W24565  40.210  26.742  53.785
32642W        W24566  26.708  29.228  51.053
32643W        W24567  28.222   7.765  49.667
32644W        W24568  27.233  16.729  53.345
32645W        W24569   2.294  17.740  50.609
32646W        W24570  25.241  20.226  51.525
32647W        W24571  40.188  18.230  51.975
32648W        W24572  23.253  30.220  49.698
32649W        W24573  36.194   6.244  50.619
32650W        W24574  13.761  34.231  51.046
32651W        W24575  10.763   8.740  53.811
32652W        W24576  33.710  28.731  52.893
32653W        W24577  32.704  18.757  50.164
32654W        W24578  15.768  35.732  53.806
32655W        W24579   9.772  29.225  53.350
32656W        W24580  28.729   1.269  52.438
32657W        W24581  45.701   0.749  51.492
32658W        W24582  31.742  21.245  50.617
32659W        W24583   1.276  41.228  51.530
32660W        W24584  13.754  22.735  51.977
32661W        W24585  14.741  38.731  53.317
32662W        W24586   9.745  35.740  49.699
32663W        W24587  25.719  10.741  52.866
32664W        W24588  35.725  27.725  52.425
32665W        W24589  36.724  15.726  50.135
32666W        W24590   8.241  22.240  50.132
32667W        W24591  40.721   3.774  51.528
32668W        W24592  23.215  34.205  53.787
32669W        W24593   8.243  12.761  51.077
32670W        W24594  37.222  11.254  53.323
32671W        W24595  33.207  33.237  52.893
32672W        W24596   0.763  15.227  49.698
32673W        W24597  37.232  20.217  53.803
32674W        W24598  21.744  28.748  53.361
32675W        W24599  18.222  19.251  49.702
32676W        W24600   8.249  43.699  51.951
32677W        W24601  14.744   4.246  51.502
32678W        W24602  41.216  48.192  50.579
32679W        W24603   7.281  18.738  51.968
32680W        W24604   4.244  21.718  50.133
32681W        W24605  17.234   3.772  49.697
32682W        W24606  26.741  20.257  52.867
32683W        W24607  14.767  16.737  49.704
32684W        W24608  33.202  12.731  50.614
32685W        W24609  44.695   4.774  51.973
32686W        W24610  37.698  26.737  53.349
32687W        W24611  39.731  25.747  53.777
32688W        W24612  36.733  34.740  53.341
32689W        W24613  31.202  33.225  51.064
32690W        W24614   0.270  12.272  53.800
32691W        W24615  35.719   7.755  52.885
32692W        W24616  41.731   2.260  52.896
32693W        W24617  34.728   4.264  52.888
32694W        W24618  16.758  43.697  53.789
32695W        W24619   8.269   2.294  49.702
32696W        W24620  47.210  35.716  51.047
32697W        W24621  24.250  17.769  51.948
32698W        W24622  12.243  23.759  51.078
32699W        W24623  20.719  45.707  53.816
32700W        W24624   8.249   3.280  52.422
32701W        W24625  19.748   5.264  51.494
32702W        W24626   9.771  21.249  53.342
32703W        W24627  25.243   3.752  51.521
32704W        W24628  24.242  10.243  51.064
32705W        W24629  17.770  20.244  53.341
32706W        W24630  31.248   9.282  52.444
32707W        W24631  37.717  32.209  53.809
32708W        W24632  11.741  37.205  53.358
32709W        W24633   4.753   5.781  51.499
32710W        W24634   0.756   0.292  50.162
32711W        W24635  43.711  27.233  53.321
32712W        W24636  11.752  14.260  49.682
32713W        W24637  14.269  17.764  51.056
32714W        W24638  46.193  18.751  52.433
32715W        W24639  37.191  11.779  51.035
32716W        W24640  17.731   2.287  50.149
32717W        W24641  33.700  36.734  51.067
32718W        W24642   1.280  21.731  51.509
32719W        W24643   1.253  37.237  51.517
32720W        W24644   0.787  19.753  53.791
32721W        W24645  15.735  48.206  53.345
32722W        W24646  10.746   2.765  49.673
32723W        W24647   3.755  20.240  51.036
32724W        W24648  29.724  14.239  51.986
32725W        W24649  34.718  35.218  51.954
32726W        W24650   5.275  20.760  51.957
32727W        W24651  35.228  18.733  51.530
32728W        W24652  13.747  45.197  52.881
32729W        W24653   9.743  19.724  51.526
32730W        W24654  48.197  22.729  53.805
32731W        W24655  13.755  34.211  52.871
32732W        W24656  17.260  28.742  52.886
32733W        W24657  10.780  10.244  52.406
32734W        W24658  27.253  23.256  51.526
32735W        W24659   5.243   8.752  53.786
32736W        W24660  36.738  13.734  52.893
32737W        W24661  16.742  14.260  51.498
32738W        W24662  35.208  28.712  50.620
32739W        W24663   2.767   7.259  50.614
32740W        W24664  29.216  43.221  51.503
32741W        W24665  39.203  11.733  52.444
32742W        W24666  18.232  35.218  51.069
32743W        W24667   3.259  33.234  50.160
32744W        W24668  30.705  17.271  53.324
32745W        W24669  41.716  36.203  50.580
32746W        W24670  47.706   6.262  51.492
32747W        W24671  28.248  43.180  53.805
32748W        W24672  15.244  23.247  51.982
32749W        W24673  36.711   8.757  50.156
32750W        W24674   2.273  37.713  50.134
32751W        W24675  18.257  42.197  50.140
32752W        W24676  45.696  29.708  50.135
32753W        W24677  15.272  39.728  52.411
32754W        W24678   9.236   6.761  51.055
32755W        W24679  39.187  28.713  53.328
32756W        W24680  14.227  26.235  52.891
32757W        W24681  35.228  22.735  49.694
32758W        W24682  33.701  43.227  53.344
32759W        W24683  31.706  43.714  51.510
32760W        W24684  28.731   2.784  53.354
32761W        W24685  35.199  24.719  50.600
32762W        W24686   4.266  39.214  50.585
32763W        W24687  13.255   2.247  53.789
32764W        W24688  45.184  37.220  52.432
32765W        W24689   0.295  29.751  50.136
32766W        W24690  21.720  24.257  51.954
32767W        W24691   5.776  40.205  50.125
32768W        W24692  36.221   0.273  49.692
32769W        W24693  22.714  36.731  49.672
32770W        W24694  22.238   3.250  50.582
32771W        W24695  43.711   1.286  53.804
32772W        W24696   5.752  35.719  53.334
32773W        W24697  42.204  37.216  52.887
32774W        W24698   4.782  43.708  52.876
32775W        W24699  35.691  28.225  50.588
32776W        W24700  19.722  36.735  52.896
32777W        W24701  25.213  30.226  53.316
32778W        W24702  43.222  20.730  51.947
32779W        W24703  46.207  28.234  50.135
32780W        W24704  38.727   9.746  51.962
32781W        W24705  27.707  10.766  51.036
32782W        W24706  48.203  24.738  49.680
32783W        W24707   4.259  22.745  51.490
32784W        W24708  40.227   8.764  52.411
32785W        W24709  33.214  23.727  51.065
32786W        W24710  39.709  39.198  51.984
32787W        W24711  44.685   1.290  49.696
32788W        W24712  28.248   2.758  51.534
32789W        W24713  18.741  25.716  51.036
32790W        W24714  42.206  47.215  51.991
32791W        W24715  37.230  45.702  52.891
32792W        W24716  31.712  36.227  50.613
32793W        W24717  29.741   6.287  52.868
32794W        W24718   2.289  40.221  53.774
32795W        W24719  42.720  33.235  50.163
32796W        W24720  47.199   6.751  51.060
32797W        W24721   1.763  12.732  49.674
32798W        W24722  36.727   1.285  51.523
32799W        W24723   7.741  28.226  53.795
32800W        W24724  11.740   8.759  53.807
32801W        W24725   6.769  18.747  50.166
32802W        W24726  27.738  23.743  50.161
32803W        W24727  17.754   1.248  50.592
32804W        W24728  35.730  15.750  53.339
32805W        W24729  19.227  22.757  51.520
32806W        W24730  46.674   5.748  52.444
32807W        W24731  11.277  46.674  49.672
32808W        W24732   2.269  18.235  51.064
32809W        W24733  10.276  27.231  50.145
32810W        W24734  38.687  47.193  53.341
32811W        W24735  45.214  41.720  50.161
32812W        W24736  36.234  43.703  50.123
32813W        W24737  43.715  17.236  52.864
32814W        W24738  21.733  24.733  50.616
32815W        W24739  11.735  14.737  53.791
32816W        W24740  26.211  41.707  52.424
32817W        W24741   2.761  10.768  52.424
32818W        W24742  35.719  25.217  49.703
32819W        W24743  24.252  41.685  52.408
32820W        W24744  20.252  46.706  51.985
32821W        W24745  26.728  20.241  53.339
32822W        W24746  47.215  31.215  50.592
32823W        W24747  25.746  20.228  51.981
32824W        W24748  36.213   5.262  51.964
32825W        W24749  18.742  40.233  52.884
32826W        W24750  34.238  35.716  51.050
32827W        W24751   2.259   3.784  51.968
32828W        W24752   3.749   6.257  52.405
32829W        W24753  12.763   0.259  52.430
32830W        W24754  42.214  27.214  53.325
32831W        W24755  32.199  20.231  50.601
32832W        W24756  17.238  42.719  51.525
32833W        W24757  19.757   2.258  53.815
32834W        W24758  46.677  22.748  53.815
32835W        W24759  28.733  40.693  51.066
32836W        W24760  21.251  35.241  53.776
32837W        W24761   9.281  19.261  50.158
32838W        W24762   8.761  22.258  51.076
32839W        W24763  28.244  39.219  53.340
32840W        W24764  43.727  48.218  52.886
32841W        W24765  21.265  45.188  53.804
32842W        W24766  38.718  27.244  53.325
32843W        W24767  29.203  40.732  53.774
32844W        W24768   8.278   4.785  51.989
32845W        W24769  16.262  21.746  52.885
32846W        W24770   3.764  46.696  52.438
32847W        W24771  13.249  40.206  51.990
32848W        W24772  30.222   8.261  51.979
32849W        W24773   3.292  38.229  52.867
32850W        W24774  17.736  39.726  51.036
32851W        W24775  17.745   0.271  49.704
32852W        W24776  15.266  18.229  49.678
32853W        W24777  45.677   7.262  52.866
32854W        W24778  26.254  34.736  50.161
32855W        W24779   3.268  12.234  50.159
32856W        W24780  11.777  10.266  51.528
32857W        W24781   7.751  32.242  50.154
32858W        W24782  38.725  44.676  52.424
32859W        W24783  13.233   1.782  50.164
32860W        W24784  22.242  14.760  49.706
32861W        W24785  14.234  17.250  52.893
32862W        W24786  27.217   4.757  52.437
32863W        W24787  44.684  18.248  50.622
32864W        W24788  25.713   7.270  52.437
32865W        W24789  41.710  23.246  53.812
32866W        W24790  46.694  12.241  53.779
32867W        W24791  44.200  36.192  52.904
32868W        W24792  22.260  34.696  50.594
32869W        W24793  30.707  20.760  51.985
32870W        W24794  31.722  37.715  50.611
32871W        W24795  43.707  18.768  51.518
32872W        W24796  12.751  48.175  51.521
32873W        W24797  42.189   0.759  51.054
32874W        W24798   7.283  32.720  51.972
32875W        W24799  15.725   0.280  51.959
32876W        W24800  35.225  15.233  53.788
32877W        W24801  38.217   1.754  51.057
32878W        W24802   9.272  17.765  51.951
32879W        W24803  29.743   8.271  50.584
32880W        W24804  31.248  29.704  51.521
32881W        W24805   3.284  27.741  51.982
32882W        W24806   7.272  32.737  52.896
32883W        W24807  25.749  28.721  50.622
32884W        W24808  43.199   3.754  50.607
32885W        W24809  27.245  36.210  50.129
32886W        W24810  28.708  11.257  52.885
32887W        W24811  27.706   1.273  50.579
32888W        W24812  26.249  29.209  51.516
32889W        W24813   5.287   5.762  51.507
32890W        W24814  35.232  18.724  50.159
32891W        W24815  25.712  23.725  51.505
32892W        W24816  34.702  21.757  51.952
32893W        W24817   7.749  37.237  53.339
32894W        W24818  47.702  35.202  51.052
32895W        W24819  33.213  27.730  53.327
32896W        W24820  11.236   5.245  53.318
32897W        W24821  38.716  21.719  52.437
32898W        W24822  40.686  23.226  51.071
32899W        W24823  13.267  40.206  52.875
32900W        W24824  17.758   3.772  49.706
32901W        W24825  36.727  28.251  50.122
32902W        W24826  37.712  17.732  53.323
32903W        W24827  26.730  41.719  51.045
32904W        W24828  13.763   9.275  49.701
32905W        W24829   0.294   1.250  51.495
32906W        W24830  11.259  15.266  50.617
32907W        W24831  16.768  29.746  49.665
32908W        W24832  31.705  27.718  52.890
32909W        W24833  11.759   1.776  51.505
32910W        W24834   1.285  12.777  53.803
32911W        W24835  47.689  40.706  51.500
32912W        W24836   6.277  31.242  53.345
32913W        W24837  45.677  38.230  53.773
32914W        W24838   3.746  20.746  52.861
32915W        W24839  43.225  42.197  50.159
32916W        W24840  46.206  29.733  53.339
32917W        W24841   1.796  34.214  52.443
32918W        W24842  37.238  26.251  49.691
32919W        W24843  48.203  22.713  52.429
32920W        W24844  33.225   4.751  50.150
32921W        W24845   5.247  48.183  52.441
32922W        W24846  15.267  17.755  51.525
32923W        W24847   5.789  42.226  52.440
32924W        W24848  42.228  15.230  53.359
32925W        W24849   9.754  26.226  52.405
32926W        W24850  39.710  38.232  49.686
32927W        W24851  32.708  15.225  50.580
32928W        W24852   2.751  44.195  50.593
32929W        W24853  21.745  35.225  51.496
32930W        W24854   4.292  22.719  53.351
32931W        W24855   1.786  37.205  53.810
32932W        W24856   4.285  33.736  51.986
32933W        W24857   3.263  46.694  49.676
32934W        W24858  21.727  13.276  53.361
32935W        W24859  12.753   8.246  50.611
32936W        W24860  20.241  37.221  50.143
32937W        W24861  34.719  46.174  51.041
32938W        W24862  34.201  30.240  49.669
32939W        W24863  36.194  20.220  51.036
32940W        W24864   5.761  14.252  52.873
32941W        W24865  20.239  15.772  50.124
32942W        W24866   9.768  16.759  52.875
32943W        W24867  16.762  28.224  51.978
32944W        W24868  41.715  19.747  51.072
32945W        W24869  40.716  35.717  51.519
32946W        W24870  35.708  36.730  49.677
32947W        W24871  37.217  24.223  53.334
32948W        W24872  24.260  13.265  52.874
32949W        W24873   1.285   4.291  52.420
32950W        W24874  18.229  32.733  52.887
32951W        W24875  25.731   9.775  52.411
32952W        W24876   5.780  20.243  50.137
32953W        W24877  47.700  32.228  50.124
32954W        W24878   9.759  28.743  51.974
32955W        W24879  26.216  40.195  49.672
32956W        W24880  25.715  31.700  50.154
32957W        W24881  31.719  13.232  50.135
32958W        W24882  27.223  38.734  52.417
32959W        W24883  30.232  22.735  53.797
32960W        W24884  32.730  29.728  51.989
32961W        W24885   4.763  13.733  52.869
32962W        W24886  12.751   7.273  51.065
32963W        W24887  13.254  23.239  53.778
32964W        W24888   5.754  35.203  52.423
32965W        W24889  46.681  38.191  50.583
32966W        W24890   8.761  47.692  52.418
32967W        W24891  43.208  38.223  50.156
32968W        W24892  45.194  28.708  53.343
32969W        W24893  14.248  26.208  51.059
32970W        W24894   4.773  24.751  53.799
32971W        W24895  47.701  45.708  51.497
32972W        W24896   4.266  33.741  50.138
32973W        W24897  29.746  37.696  53.795
32974W        W24898  40.685  18.743  52.892
32975W        W24899  37.202   0.250  53.814
32976W        W24900  23.718  36.201  50.122
32977W        W24901  10.253  33.216  50.164
32978W        W24902  14.734  13.769  53.811
32979W        W24903   4.282   4.249  53.786
32980W        W24904  22.727   5.280  50.620
32981W        W24905  15.725   7.754  52.409
32982W        W24906  26.239   0.791  53.347
32983W        W24907  19.254  39.700  53.347
32984W        W24908  41.707   2.267  50.588
32985W        W24909  38.705  39.207  52.434
32986W        W24910  44.205  11.265  51.516
32987W        W24911   7.785  42.188  53.797
32988W        W24912  34.710  38.236  53.780
32989W        W24913   0.281  25.251  50.123
32990W        W24914  18.263   0.276  51.048
32991W        W24915   8.274  17.767  53.773
32992W        W24916  29.247  31.200  51.067
32993W        W24917  34.233  45.198  51.971
32994W        W24918  44.218  31.228  50.618
32995W        W24919  27.229  23.259  49.702
32996W        W24920   8.280  37.191  50.154
32997W        W24921   2.747  10.258  52.876
32998W        W24922  28.240  45.186  53.783
32999W        W24923  40.216  15.737  52.882
33000W        W24924  34.197   2.749  50.147
33001W        W24925  39.216  13.734  51.506
33002W        W24926  11.259  26.241  52.441
33003W        W24927  21.763   5.773  50.597
33004W        W24928  13.756  28.208  53.802
33005W        W24929  25.715   1.254  50.157
33006W        W24930  48.197  48.204  52.414
33007W        W24931  13.751  36.728  50.600
33008W        W24932  36.708  28.729  51.987
33009W        W24933  15.242  41.687  52.896
33010W        W24934  46.215   4.785  51.039
33011W        W24935  25.717  28.250  50.142
33012W        W24936   5.263  22.232  53.804
33013W        W24937   5.763  28.732  53.321
33014W        W24938  15.269  48.209  53.797
33015W        W24939  20.238   0.265  51.534
33016W        W24940  29.702  33.705  50.123
33017W        W24941  12.739  38.199  50.611
33018W        W24942  17.248  18.249  52.867
33019W        W24943  48.192  35.701  50.122
33020W        W24944  38.706  24.713  51.034
33021W        W24945  47.214  45.188  51.991
33022W        W24946  36.218  38.697  50.137
33023W        W24947  11.747  46.221  53.788
33024W        W24948  35.206   8.285  52.876
33025W        W24949  16.259   9.283  50.601
33026W        W24950   5.769  39.713  53.787
33027W        W24951   7.249  41.705  52.869
33028W        W24952  29.715  27.719  52.403
33029W        W24953   5.759  22.756  49.691
33030W        W24954   3.778   6.251  49.675
33031W        W24955  26.741  38.712  51.070
33032W        W24956   3.754  16.243  50.165
33033W        W24957  13.268  10.764  49.678
33034W        W24958  20.266  18.752  52.876
33035W        W24959   6.747  31.212  51.496
33036W        W24960  10.263  34.742  53.814
33037W        W24961   2.277  26.712  51.949
33038W        W24962   9.742  27.219  50.138
33039W        W24963  39.207  42.704  51.497
33040W        W24964  16.739  26.735  51.490
33041W        W24965  35.221  39.689  53.818
33042W        W24966  21.744  23.719  52.864
33043W        W24967  26.212  13.257  53.812
33044W        W24968  23.742  31.713  50.595
33045W        W24969   8.284   1.283  53.320
33046W        W24970  42.684  24.735  51.529
33047W        W24971  32.228   7.253  52.425
33048W        W24972  35.207  23.724  52.412
33049W        W24973  36.223  20.736  51.955
33050W        W24974   8.254  17.239  52.895
33051W        W24975  39.704  26.731  51.062
33052W        W24976  39.693  31.707  49.693
33053W        W24977   7.787  22.231  52.427
33054W        W24978  21.742  34.226  52.890
33055W        W24979   6.784  44.690  52.409
33056W        W24980  46.687  10.753  52.890
33057W        W24981  45.695  33.226  51.965
33058W        W24982   2.765  31.205  51.968
33059W        W24983  47.177  41.696  50.587
33060W        W24984   2.760  11.278  50.145
33061W        W24985  18.232  20.752  51.512
33062W        W24986  21.238  27.245  51.959
33063W        W24987  38.697   4.766  49.703
33064W        W24988   1.786  22.742  51.525
33065W        W24989  44.684  15.241  51.049
33066W        W24990  25.222  22.220  52.437
33067W        W24991   3.780  20.259  53.798
33068W        W24992  32.239   6.773  52.429
33069W        W24993   6.759  19.265  51.955
33070W        W24994   8.263  22.234  51.052
33071W        W24995  15.725  36.210  50.606
33072W        W24996  33.717   1.752  52.403
33073W        W24997  23.723  38.193  50.160
33074W        W24998   9.243  43.191  53.355
33075W        W24999  28.748  10.242  53.341
33076W        W25000  17.224  35.212  50.605
33077W        W25001   5.271  24.734  51.501
33078W        W25002  19.254  14.248  51.506
33079W        W25003  20.745   0.779  52.898
33080W        W25004  23.237  40.683  53.815
33081W        W25005  41.693  24.732  52.873
33082W        W25006  29.709  32.229  52.865
33083W        W25007  31.212  34.725  51.069
33084W        W25008  10.246   0.763  53.332
33085W        W25009  36.209  46.681  52.882
33086W        W25010  27.231  14.237  50.578
33087W        W25011   5.787  36.691  53.810
33088W        W25012  47.208  36.199  49.683
33089W        W25013  43.697  18.226  51.040
33090W        W25014   8.236  35.211  49.668
33091W        W25015  39.704  29.231  49.666
33092W        W25016  23.717  30.205  52.899
33093W        W25017  21.222  36.193  51.034
33094W        W25018   1.788  24.710  53.789
33095W        W25019  39.204  36.701  53.339
33096W        W25020  18.750  25.743  52.873
33097W        W25021  47.212  31.729  52.892
33098W        W25022  35.695  46.201  49.677
33099W        W25023  17.241   3.277  51.956
33100W        W25024  43.200  39.193  51.988
33101W        W25025   3.289  26.256  50.617
33102W        W25026  43.214  13.260  53.327
33103W        W25027  43.179  47.692  52.446
33104W        W25028  20.263   8.239  51.508
33105W        W25029  27.211  23.758  49.669
33106W        W25030   9.239   7.755  53.798
33107W        W25031  45.211  27.732  52.888
33108W        W25032  42.723   3.249  52.418
33109W        W25033  28.239  41.731  53.775
33110W        W25034  30.720  41.725  53.799
33111W        W25035  37.238  46.182  49.709
33112W        W25036  41.212  16.752  51.973
33113W        W25037  43.716   2.784  51.064
33114W        W25038  23.257  35.717  50.593
33115W        W25039  32.201  25.745  51.992
33116W        W25040  46.709  17.261  51.972
33117W        W25041  33.201  17.757  51.535
33118W        W25042  11.773  10.754  51.523
33119W        W25043  22.223  31.216  52.433
33120W        W25044  45.177  42.688  50.144
33121W        W25045  29.703  13.757  51.990
33122W        W25046  13.766  29.706  50.596
33123W        W25047  30.238  19.718  50.588
33124W        W25048  23.749  19.235  51.959
33125W        W25049  28.719  47.219  49.697
33126W        W25050  17.732   6.760  51.525
33127W        W25051   8.737  28.739  51.052
33128W        W25052  27.239  32.722  51.045
33129W        W25053  28.212  17.766  52.903
33130W        W25054  13.736  21.738  50.612
33131W        W25055  40.688   8.241  51.982
33132W        W25056   8.257  10.747  50.151
33133W        W25057  17.266  41.715  49.676
33134W        W25058  29.202  27.735  52.881
33135W        W25059  40.699   8.781  50.592
33136W        W25060  40.706   4.264  52.894
33137W        W25061   6.249  20.260  51.066
33138W        W25062  37.205  36.236  52.423
33139W        W25063   3.266  32.216  52.881
33140W        W25064   3.252  44.200  50.129
33141W        W25065  36.200  33.217  51.991
33142W        W25066  43.705  42.721  53.323
33143W        W25067  48.178  23.252  51.516
33144W        W25068  34.706  46.197  49.674
33145W        W25069  26.749  10.265  52.859
33146W        W25070  35.715  46.696  51.947
33147W        W25071  12.254  15.764  50.128
33148W        W25072   7.271  47.216  53.353
33149W        W25073  28.208   4.783  49.708
33150W        W25074  32.702   2.779  49.710
33151W        W25075  13.245  18.263  50.595
33152W        W25076  14.261  41.219  51.506
33153W        W25077  40.717  17.768  50.603
33154W        W25078  17.749  36.211  51.963
33155W        W25079  27.751  13.741  51.947
33156W        W25080   7.779  32.741  53.325
33157W        W25081  35.202  43.702  51.976
33158W        W25082  11.742  42.224  50.149
33159W        W25083  41.722   6.776  49.673
33160W        W25084  13.759  31.218  52.888
33161W        W25085  31.705  14.771  51.504
33162W        W25086  43.189  33.704  53.812
33163W        W25087  14.241  17.248  53.320
33164W        W25088   3.249  35.707  51.044
33165W        W25089  16.732   7.747  50.154
33166W        W25090   3.768   1.791  53.326
33167W        W25091  12.250  38.735  53.355
33168W        W25092  22.730  33.736  52.866
33169W        W25093   1.776  42.707  51.521
33170W        W25094  28.728  46.704  51.505
33171W        W25095   9.744  20.244  52.887
33172W        W25096   5.290  33.205  53.806
33173W        W25097  38.197  31.731  51.040
33174W        W25098  41.692  32.746  52.425
33175W        W25099  46.675  22.720  50.603
33176W        W25100  24.249  35.730  51.059
33177W        W25101  28.731   4.769  53.335
33178W        W25102  21.250  13.276  53.359
33179W        W25103  30.228  30.244  49.675
33180W        W25104   8.775  14.240  51.507
33181W        W25105  17.259  39.189  51.970
33182W        W25106  36.239  34.194  51.517
33183W        W25107  34.241   9.743  49.698
33184W        W25108   1.289  19.746  52.435
33185W        W25109  18.253  41.202  52.408
33186W        W25110  17.230  38.708  51.956
33187W        W25111  24.254  34.200  50.614
33188W        W25112  11.777  34.710  51.059
33189W        W25113  23.216  37.713  52.862
33190W        W25114  34.700  35.202  52.446
33191W        W25115   0.251   4.748  52.444
33192W        W25116  46.680   0.773  49.701
33193W        W25117  20.236  14.766  51.958
33194W        W25118  14.740  19.746  53.791
33195W        W25119  10.740  48.212  51.984
33196W        W25120  45.211  32.700  51.985
33197W        W25121  14.228  16.730  50.578
33198W        W25122  46.694  35.725  50.153
33199W        W25123  15.766  31.200  53.342
33200W        W25124  24.218   9.743  52.892
33201W        W25125  40.220  44.713  51.951
33202W        W25126  33.706   2.776  53.796
33203W        W25127  34.701  42.721  52.870
33204W        W25128  14.736  24.219  51.517
33205W        W25129  18.763  24.711  52.407
33206W        W25130  10.253  17.255  51.067
33207W        W25131  44.705   3.277  50.600
33208W        W25132  39.225   1.763  53.792
33209W        W25133  32.710  23.747  51.520
33210W        W25134   3.760  17.768  52.897
33211W        W25135  19.259  18.740  51.506
33212W        W25136  12.262  27.219  51.982
33213W        W25137  22.230   9.276  50.127
33214W        W25138  23.260  16.762  53.781
33215W        W25139  20.228   6.751  49.709
33216W        W25140  26.235  25.225  51.948
33217W        W25141   6.275  30.709  51.992
33218W        W25142   8.262  32.746  52.873
33219W        W25143  43.691   2.259  53.329
33220W        W25144  37.693  14.228  52.441
33221W        W25145   3.769   7.243  49.703
33222W        W25146   9.260  33.744  50.154
33223W        W25147  16.266  37.207  49.685
33224W        W25148  35.202  29.221  51.494
33225W        W25149  31.717  32.197  53.801
33226W        W25150  46.717   5.790  53.352
33227W        W25151   0.768   4.254  51.491
33228W        W25152  22.762   3.769  50.142
33229W        W25153  35.722  24.756  51.954
33230W        W25154   4.787  37.735  50.157
33231W        W25155  18.723   8.254  51.960
33232W        W25156  24.722  17.765  51.961
33233W        W25157  41.222   3.746  49.697
33234W        W25158  17.266  35.205  50.123
33235W        W25159  23.255   6.741  52.423
33236W        W25160  20.754   0.756  53.789
33237W        W25161  24.712  19.719  51.955
33238W        W25162  11.739  47.212  52.443
33239W        W25163  13.729  44.699  50.149
33240W        W25164  24.250  15.741  53.317
33241W        W25165  46.188  21.717  53.784
33242W        W25166  21.235   6.256  50.587
33243W        W25167  11.257  33.217  52.887
33244W        W25168  29.722  42.689  51.056
33245W        W25169  16.231  42.719  53.352
33246W        W25170  30.718   0.771  51.497
33247W        W25171  22.245  19.249  49.670
33248W        W25172  46.176   0.294  50.132
33249W        W25173  18.229  39.719  52.416
33250W        W25174  16.225  14.770  53.345
33251W        W25175  19.230   6.289  51.521
33252W        W25176  36.702  23.734  51.978
33253W        W25177   7.242   3.276  52.867
33254W        W25178  17.226  20.253  52.881
33255W        W25179  20.255  44.704  50.587
33256W        W25180  37.716  10.267  52.869
33257W        W25181  20.720  26.746  50.597
33258W        W25182  48.198  40.696  49.670
33259W        W25183  27.709  13.236  50.128
33260W        W25184  37.202  17.239  53.353
33261W        W25185  22.744  12.241  52.897
33262W        W25186  37.719  21.722  53.330
33263W        W25187  20.248  34.706  49.694
33264W        W25188  38.194   0.257  53.358
33265W        W25189  48.195   1.793  52.430
33266W        W25190  45.217  32.715  52.886
33267W        W25191  44.226  26.250  49.694
33268W        W25192  42.216  31.242  52.431
33269W        W25193  15.237  46.715  53.798
33270W        W25194  35.717  37.703  50.594
33271W        W25195  40.707  37.236  51.035
33272W        W25196  20.221   0.252  51.962
33273W        W25197  44.224  20.243  51.950
33274W        W25198  17.243  19.744  51.958
33275W        W25199  35.713  28.726  52.891
33276W        W25200  21.260  33.738  51.493
33277W        W25201  30.238  19.734  51.979
33278W        W25202  44.191  18.733  53.340
33279W        W25203  16.747  36.192  52.881
33280W        W25204  40.201  28.722  50.618
33281W        W25205  18.227  30.217  52.405
33282W        W25206   5.754  32.717  49.666
33283W        W25207  17.748   1.786  52.407
33284W        W25208  36.202  40.701  50.140
33285W        W25209  21.247  26.707  50.130
33286W        W25210  17.751  29.204  53.347
33287W        W25211  13.268  42.196  49.676
33288W        W25212  47.704  38.196  52.890
33289W        W25213   5.781  36.697  52.403
33290W        W25214  34.218  16.767  52.864
33291W        W25215  18.263  26.220  53.797
33292W        W25216  14.775   4.286  53.812
33293W        W25217  34.221  41.692  51.037
33294W        W25218   7.759  13.276  51.529
33295W        W25219  39.690  25.237  50.135
33296W        W25220  39.234   7.243  50.148
33297W        W25221  31.732  10.246  52.413
33298W        W25222  11.261  14.763  49.703
33299W        W25223  47.186   5.786  53.772
33300W        W25224  34.741   9.235  53.807
33301W        W25225  35.707  39.220  53.346
33302W        W25226   7.281   4.260  51.063
33303W        W25227  32.232  28.217  50.127
33304W        W25228   5.254  17.264  53.817
33305W        W25229  36.691  30.205  50.621
33306W        W25230  35.198  28.730  49.703
33307W        W25231  23.236  36.235  51.051
33308W        W25232  21.219  33.715  53.813
33309W        W25233  24.717  26.215  49.703
33310W        W25234  28.230  12.233  50.612
33311W        W25235  11.255   1.254  51.505
33312W        W25236   4.788  29.737  49.706
33313W        W25237  36.708  41.187  52.885
33314W        W25238  40.204   1.759  50.163
33315W        W25239  21.257  20.218  53.358
33316W        W25240  33.723   1.264  51.041
33317W        W25241   6.250  12.246  52.894
33318W        W25242   9.260  27.235  49.694
33319W        W25243  28.726  37.213  51.047
33320W        W25244  22.743  36.726  53.324
33321W        W25245  38.228   3.279  51.048
33322W        W25246  17.766  39.694  49.673
33323W        W25247  45.209  39.710  52.424
33324W        W25248  43.225  29.749  50.577
33325W        W25249  12.269  19.222  51.499
33326W        W25250  23.233  22.720  53.349
33327W        W25251  14.227  44.227  49.693
33328W        W25252  24.739  20.243  51.065
33329W        W25253  36.709  18.768  53.793
33330W        W25254  43.703  16.744  49.676
33331W        W25255  12.733  10.747  50.165
33332W        W25256  10.235   4.249  50.616
33333W        W25257  42.181   4.780  53.317
33334W        W25258  45.678   0.285  50.134
33335W        W25259  42.206  35.703  51.056
33336W        W25260  29.220  40.713  52.434
33337W        W25261  26.709  39.717  52.896
33338W        W25262  21.733  11.267  50.149
33339W        W25263  14.761   5.283  51.506
33340W        W25264  40.224  28.752  51.959
33341W        W25265  42.681  25.247  51.036
33342W        W25266   1.758  39.733  49.670
33343W        W25267  13.264  29.718  51.954
33344W        W25268  28.229   6.250  52.438
33345W        W25269  33.710  21.760  49.699
33346W        W25270  35.708   5.268  53.795
33347W        W25271  28.748  32.736  53.328
33348W        W25272  44.191   4.774  50.622
33349W        W25273  31.723   8.738  50.141
33350W        W25274  38.225  47.192  52.433
33351W        W25275  34.204  38.735  49.680
33352W        W25276   9.236  47.198  53.352
33353W        W25277  11.268  37.209  53.792
33354W        W25278  20.738  25.728  52.414
33355W        W25279  35.730  11.246  50.604
33356W        W25280  37.726  35.203  51.523
33357W        W25281  18.725   3.255  52.876
33358W        W25282  19.233  38.698  53.322
33359W        W25283   0.297  27.744  51.059
33360W        W25284  46.217  20.733  52.893
33361W        W25285  25.730  19.732  49.698
33362W        W25286  47.705  36.202  50.616
33363W        W25287  44.700  46.214  52.897
33364W        W25288  12.277  21.718  50.605
33365W        W25289   5.276  15.253  51.056
33366W        W25290   1.763  33.730  53.339
33367W        W25291  27.739  41.208  51.531
33368W        W25292   7.282  26.736  49.701
33369W        W25293  22.217   1.276  50.130
33370W        W25294  48.206  42.195  52.876
33371W        W25295  34.203  18.724  53.804
33372W        W25296  43.687  35.216  53.776
33373W        W25297  40.719  39.223  51.507
33374W        W25298  38.231   8.267  52.880
33375W        W25299  34.200  37.235  52.405
33376W        W25300  42.210   9.284  50.596
33377W        W25301  16.723  26.750  51.981
33378W        W25302   8.251  26.733  53.780
33379W        W25303  35.222  29.737  50.138
33380W        W25304  32.730  42.194  51.502
33381W        W25305  23.241   5.284  52.431
33382W        W25306   8.784  43.693  53.778
33383W        W25307   4.273  14.752  51.510
33384W        W25308  48.216  44.715  50.150
33385W        W25309  36.739  36.230  52.864
33386W        W25310   7.247  37.730  51.956
33387W        W25311  24.228   6.286  51.532
33388W        W25312  23.247  32.235  52.407
33389W        W25313  11.775  33.199  52.892
33390W        W25314   1.271  32.233  51.958
33391W        W25315  23.228  17.727  52.885
33392W        W25316  43.207  20.233  53.785
33393W        W25317  10.245  34.702  49.708
33394W        W25318  21.762   3.260  51.991
33395W        W25319  28.217  38.189  53.328
33396W        W25320  28.219  17.258  53.355
33397W        W25321  47.211  27.213  51.510
33398W        W25322   3.777  14.252  51.953
33399W        W25323  21.738  38.193  50.158
33400W        W25324  10.776   5.772  50.620
33401W        W25325  16.242  29.245  51.058
33402W        W25326  21.720  43.694  51.522
33403W        W25327  35.195  24.758  51.955
33404W        W25328  12.232  27.233  50.594
33405W        W25329  11.758  23.247  49.686
33406W        W25330  31.204  26.208  50.615
33407W        W25331  11.750  30.738  51.513
33408W        W25332  37.227  40.687  49.671
33409W        W25333  29.720  11.262  53.326
33410W        W25334  29.704   5.786  53.336
33411W        W25335  37.198  24.758  52.878
33412W        W25336  15.733  39.220  51.967
33413W        W25337  21.233  12.267  53.353
33414W        W25338   3.770  31.733  51.044
33415W        W25339  22.741   2.766  49.677
33416W        W25340   2.280  21.738  50.129
33417W        W25341  29.235   7.772  50.162
33418W        W25342  14.270   3.759  53.326
33419W        W25343  33.198  21.728  51.055
33420W        W25344  22.226  30.709  51.506
33421W        W25345   0.267  24.719  51.058
33422W        W25346  39.216  18.221  52.428
33423W        W25347  48.185  29.731  51.973
33424W        W25348  13.773  47.721  49.694
33425W        W25349  22.760  25.728  50.125
33426W        W25350  18.759  31.242  51.055
33427W        W25351  23.747  42.726  50.587
33428W        W25352  35.718  20.735  53.359
33429W        W25353  17.734  47.178  50.154
33430W        W25354  17.268  40.199  51.513
33431W        W25355  11.262  12.269  52.861
33432W        W25356  27.752  48.194  53.351
33433W        W25357  20.229  27.734  52.411
33434W        W25358  23.222  45.204  53.778
33435W        W25359   8.261  43.224  52.427
33436W        W25360  43.202  13.752  51.056
33437W        W25361  32.725  33.199  51.078
33438W        W25362  30.217  47.719  53.349
33439W        W25363  31.230  18.742  51.971
33440W        W25364  21.220  40.191  49.670
33441W        W25365  27.212  34.718  52.883
33442W        W25366  14.755  23.728  50.160
33443W        W25367  33.196  31.715  53.815
33444W        W25368  36.703  18.224  52.418
33445W        W25369  42.680  24.718  52.431
33446W        W25370   7.762  18.746  53.779
33447W        W25371  39.732   0.791  51.520
33448W        W25372  46.185  28.751  50.136
33449W        W25373  20.236  47.701  53.337
33450W        W25374  27.249  39.203  51.035
33451W        W25375  29.710   1.280  53.782
33452W        W25376   7.785  39.223  52.905
33453W        W25377  28.222  48.172  49.676
33454W        W25378  15.264   2.792  50.606
33455W        W25379   6.743  39.712  51.519
33456W        W25380   6.751  13.732  51.972
33457W        W25381  32.728   6.273  51.972
33458W        W25382  33.700  38.221  51.059
33459W        W25383  15.249  43.720  51.520
33460W        W25384   5.279   3.267  50.159
33461W        W25385  28.725  37.717  52.441
33462W        W25386   7.781  30.704  52.882
33463W        W25387  45.192   5.768  52.886
33464W        W25388  33.744  25.746  50.590
33465W        W25389  17.752   5.763  53.789
33466W        W25390  22.262  10.762  53.806
33467W        W25391  30.721  18.761  51.502
33468W        W25392  17.257  17.724  52.432
33469W        W25393  43.712  27.228  53.791
33470W        W25394   3.292  23.235  50.136
33471W        W25395   1.270  18.265  51.967
33472W        W25396  34.714  38.709  49.698
33473W        W25397  15.772  45.694  53.355
33474W        W25398  23.730  10.282  49.675
33475W        W25399  39.695  21.235  51.982
33476W        W25400  35.217  23.232  51.506
33477W        W25401  21.734  24.744  53.325
33478W        W25402  39.193  45.205  52.896
33479W        W25403  10.234  25.219  52.429
33480W        W25404   3.252  45.179  51.045
33481W        W25405   0.262  28.247  50.591
33482W        W25406   4.753   5.744  50.152
33483W        W25407  32.200  19.730  52.874
33484W        W25408  22.255  15.250  53.774
33485W        W25409  19.265  41.193  52.879
33486W        W25410  24.245  22.240  50.600
33487W        W25411  24.754  29.223  51.946
33488W        W25412  27.713  32.744  53.328
33489W        W25413  47.189  40.192  52.885
33490W        W25414  32.219  23.757  53.791
33491W        W25415   3.787  44.725  53.808
33492W        W25416  10.739   1.756  50.597
33493W        W25417   5.760  18.256  52.414
33494W        W25418   9.266  34.202  52.436
33495W        W25419  19.749   2.249  50.136
33496W        W25420  37.193  32.221  52.878
33497W        W25421   2.279  16.243  52.870
33498W        W25422  47.215  17.265  52.895
33499W        W25423   2.257  38.209  50.159
33500W        W25424   8.273  44.185  51.978
33501W        W25425  15.227  34.742  52.875
33502W        W25426   1.788  33.233  51.963
33503W        W25427  17.753  43.724  52.413
33504W        W25428  21.261   0.781  49.702
33505W        W25429  29.748  29.730  52.437
33506W        W25430  25.212  35.722  50.135
33507W        W25431  16.245   6.284  50.128
33508W        W25432  32.730  16.236  51.952
33509W        W25433  29.728  27.744  49.699
33510W        W25434  35.710   2.784  51.520
33511W        W25435   1.264  45.204  53.784
33512W        W25436  22.735   5.764  53.356
33513W        W25437   8.285  33.225  50.134
33514W        W25438  24.215  30.741  53.811
33515W        W25439  38.202   0.780  51.048
33516W        W25440  15.247  40.730  49.707
33517W        W25441  20.240   1.754  51.522
33518W        W25442  21.234  26.234  53.778
33519W        W25443   9.271   0.767  53.797
33520W        W25444  38.691   5.279  53.786
33521W        W25445  41.706   2.261  51.988
33522W        W25446  30.227  28.748  51.958
33523W        W25447  44.191  15.747  53.808
33524W        W25448   9.272  14.245  53.339
33525W        W25449  44.719   8.260  52.898
33526W        W25450  19.738  28.732  51.072
33527W        W25451  17.225  41.228  53.358
33528W        W25452   8.253  30.748  52.875
33529W        W25453  45.701   1.787  50.610
33530W        W25454  16.739  26.713  51.040
33531W        W25455  35.732  14.266  50.598
33532W        W25456  45.698  39.228  49.701
33533W        W25457   8.279  24.223  52.436
33534W        W25458  38.222  22.729  50.578
33535W        W25459  45.178  10.769  53.359
33536W        W25460  25.748  22.232  51.515
33537W        W25461  26.736  28.242  51.522
33538W        W25462  18.769   7.264  51.063
33539W        W25463  26.717   3.749  51.044
33540W        W25464  42.705  10.773  51.073
33541W        W25465  34.217   7.766  53.812
33542W        W25466   5.771  23.219  50.158
33543W        W25467   4.781  38.194  52.874
33544W        W25468  17.252  24.256  53.786
33545W        W25469  25.243  33.713  53.812
33546W        W25470   2.275  15.751  51.070
33547W        W25471  22.740  45.206  51.049
33548W        W25472  31.744  28.245  50.124
33549W        W25473  38.202  28.752  50.128
33550W        W25474   4.256   6.762  50.623
33551W        W25475  26.250  15.741  52.888
33552W        W25476  47.178  20.758  49.668
33553W        W25477  20.237   6.761  51.518
33554W        W25478  47.697  35.239  53.785
33555W        W25479  45.189  26.226  51.069
33556W        W25480  12.253  38.721  50.596
33557W        W25481  25.250   8.750  50.133
33558W        W25482  20.230   6.787  51.957
33559W        W25483  41.682   4.273  50.594
33560W        W25484  40.705  25.730  51.517
33561W        W25485  29.713  26.244  51.965
33562W        W25486   9.756  20.756  51.951
33563W        W25487  24.721  12.747  49.702
33564W        W25488   6.246  38.720  50.614
33565W        W25489  17.743   2.759  51.513
33566W        W25490   1.264  33.725  53.782
33567W        W25491  39.731  41.228  49.671
33568W        W25492  29.744   3.768  50.128
33569W        W25493   4.245  47.221  53.811
33570W        W25494  18.766  31.719  53.785
33571W        W25495   2.757  31.712  51.507
33572W        W25496  25.710  27.242  52.890
33573W        W25497   2.273  33.221  51.968
33574W        W25498  21.746   8.737  53.340
33575W        W25499  40.700  23.738  51.533
33576W        W25500  42.214  38.712  51.063
33577W        W25501  10.241  25.738  51.980
33578W        W25502  28.216  19.746  50.608
33579W        W25503  45.194  38.219  51.955
33580W        W25504  46.190   5.742  51.499
33581W        W25505  34.237   1.288  53.317
33582W        W25506  12.742  32.211  51.506
33583W        W25507  29.710  27.224  51.952
33584W        W25508  35.201   7.275  53.782
33585W        W25509  47.217  30.213  51.038
33586W        W25510  29.719  24.722  53.341
33587W        W25511  46.721  10.253  51.050
33588W        W25512  29.743  18.230  49.666
33589W        W25513  47.197  37.736  52.423
33590W        W25514  11.255  40.700  53.818
33591W        W25515  35.722  42.225  50.144
33592W        W25516  47.703  47.172  52.878
33593W        W25517  26.708  37.701  53.786
33594W        W25518  27.742  14.276  53.340
33595W        W25519  45.718  10.272  51.990
33596W        W25520  16.745  44.677  53.329
33597W        W25521  12.773  16.758  51.529
33598W        W25522  32.730  32.201  52.875
33599W        W25523  37.237  41.197  52.866
33600W        W25524  22.226   2.757  50.609
33601W        W25525  42.200  42.719  50.124
33602W        W25526  17.738  12.739  50.141
33603W        W25527  16.753  47.674  49.677
33604W        W25528   4.280   9.243  52.439
33605W        W25529  39.203   6.285  50.599
33606W        W25530   8.251  16.231  51.947
33607W        W25531   4.271  26.743  51.533
33608W        W25532  43.726  31.241  52.878
33609W        W25533  15.760  26.209  52.890
33610W        W25534  35.731  30.744  52.441
33611W        W25535  42.728  19.255  52.415
33612W        W25536   6.739  35.239  49.678
33613W        W25537  42.707  39.189  50.618
33614W        W25538  38.193  40.715  50.616
33615W        W25539   8.769  46.681  51.076
33616W        W25540  17.249  21.256  53.813
33617W        W25541   4.258  35.715  53.815
33618W        W25542   2.794  25.252  51.035
33619W        W25543  26.216   7.768  52.883
33620W        W25544   7.785   5.761  51.982
33621W        W25545  24.720  32.199  53.815
33622W        W25546   2.289  12.768  53.773
33623W        W25547  13.261  25.732  49.670
33624W        W25548  45.212  45.682  50.613
33625W        W25549  31.219  12.232  51.983
33626W        W25550  41.687  38.724  53.348
33627W        W25551  45.195  21.227  52.435
33628W        W25552   7.773  32.728  51.064
33629W        W25553   6.285  46.692  51.516
33630W        W25554   3.783  14.256  52.416
33631W        W25555  36.721   8.752  52.412
33632W        W25556  47.218   5.290  53.810
33633W        W25557  11.253  25.725  53.330
33634W        W25558   0.762   8.784  52.417
33635W        W25559   0.272  29.209  51.991
33636W        W25560  30.219  40.694  51.038
33637W        W25561  14.744   5.266  51.063
33638W        W25562  37.191   6.271  52.421
33639W        W25563   9.270  12.275  49.679
33640W        W25564  43.224   1.756  53.812
33641W        W25565   6.259  16.228  51.970
33642W        W25566   4.266  16.250  52.894
33643W        W25567  13.258   8.778  51.533
33644W        W25568  40.217  15.258  51.058
33645W        W25569   1.292  39.204  52.447
33646W        W25570  15.243  25.236  49.691
33647W        W25571  45.202  19.735  51.948
33648W        W25572  26.245  30.737  52.882
33649W        W25573  20.222  11.281  52.406
33650W        W25574  30.201  30.726  49.679
33651W        W25575  17.769  37.735  52.902
33652W        W25576  23.247   7.259  53.783
33653W        W25577   5.748  38.208  52.870
33654W        W25578  10.751  22.716  52.866
33655W        W25579  16.227  34.711  51.988
33656W        W25580  44.194  31.716  51.051
33657W        W25581  17.252  37.706  53.328
33658W        W25582   5.750   2.793  49.699
33659W        W25583   7.745  37.701  52.421
33660W        W25584  45.204   0.797  52.902
33661W        W25585   1.758   2.748  51.050
33662W        W25586  45.716  10.243  49.669
33663W        W25587  34.216  46.721  51.061
33664W        W25588  18.252  14.243  50.160
33665W        W25589  41.724  12.230  49.688
33666W        W25590  38.695  21.243  49.668
33667W        W25591  35.238  29.222  50.614
33668W        W25592  18.226  42.188  51.062
33669W        W25593  22.741   5.744  53.792
33670W        W25594  13.766  37.725  53.352
33671W        W25595  17.265  31.204  52.413
33672W        W25596  16.729   8.280  53.332
33673W        W25597  37.197  32.230  49.692
33674W        W25598  31.732  26.711  51.519
33675W        W25599  25.717  46.682  50.609
33676W        W25600  19.719  32.731  51.040
33677W        W25601  22.249  13.253  51.045
33678W        W25602  30.702  29.220  52.444
33679W        W25603  44.212   6.770  53.815
33680W        W25604  19.766   2.768  52.426
33681W        W25605  23.751   7.776  53.779
33682W        W25606  35.223  20.723  51.491
33683W        W25607  44.688  28.710  52.882
33684W        W25608  40.208  35.741  51.976
33685W        W25609   6.763  42.721  53.772
33686W        W25610  17.735   2.789  51.051
33687W        W25611   5.752   7.280  52.883
33688W        W25612  42.228  31.738  53.343
33689W        W25613  16.239   2.787  51.523
33690W        W25614  30.721  18.223  50.615
33691W        W25615  20.254  47.188  50.159
33692W        W25616  28.223  40.227  50.162
33693W        W25617  38.691   1.766  51.964
33694W        W25618  10.743  44.186  51.974
33695W        W25619   9.236  18.234  49.679
33696W        W25620  45.684  42.698  52.880
33697W        W25621  17.226  34.738  51.508
33698W        W25622  45.204  27.209  50.603
33699W        W25623  16.269  11.254  50.146
33700W        W25624  29.736  42.209  49.668
33701W        W25625  34.243  27.209  52.894
33702W        W25626  47.181   9.251  51.961
33703W        W25627  14.767  35.225  51.051
33704W        W25628  40.194  45.200  51.041
33705W        W25629   5.276  27.731  52.447
33706W        W25630   6.245   0.277  53.351
33707W        W25631  12.740  17.257  52.420
33708W        W25632  18.754  26.239  51.526
33709W        W25633  47.679  42.220  53.816
33710W        W25634  36.738  12.765  52.900
33711W        W25635  46.191  22.715  53.800
33712W        W25636  11.766  24.218  51.046
33713W        W25637  19.268   0.255  51.042
33714W        W25638  31.722   7.259  53.811
33715W        W25639   6.780   7.748  50.591
33716W        W25640  22.241  28.237  53.359
33717W        W25641  15.740  24.226  51.982
33718W        W25642  42.697  45.718  52.434
33719W        W25643  48.218   3.261  51.533
33720W        W25644  30.239  28.751  49.670
33721W        W25645  48.193   0.788  52.404
33722W        W25646   6.287   3.788  51.075
33723W        W25647  29.241  32.240  50.586
33724W        W25648  13.756  15.730  51.078
33725W        W25649   0.293  36.210  49.694
33726W        W25650  42.717  28.705  52.435
33727W        W25651  14.262  42.213  50.611
33728W        W25652  47.694  44.223  50.581
33729W        W25653  28.247  10.774  50.159
33730W        W25654  31.742  45.222  53.815
33731W        W25655  26.227  47.678  51.991
33732W        W25656  19.743  28.711  50.139
33733W        W25657  27.235  33.222  51.534
33734W        W25658  38.708  43.228  53.795
33735W        W25659  22.262  47.685  51.979
33736W        W25660  48.185  34.231  52.434
33737W        W25661  18.261   8.283  50.619
33738W        W25662  47.192   2.751  53.772
33739W        W25663  27.715  26.239  51.990
33740W        W25664  33.197  32.728  51.969
33741W        W25665   1.293   7.278  52.434
33742W        W25666  46.194   3.785  51.500
33743W        W25667  13.759  25.235  52.864
33744W        W25668  40.225  47.683  53.338
33745W        W25669   5.754  24.240  51.948
33746W        W25670  18.258   8.266  53.778
33747W        W25671  24.758   1.789  51.501
33748W        W25672  29.702  45.677  51.497
33749W        W25673  23.244  41.222  50.160
33750W        W25674  28.740  16.734  50.612
33751W        W25675  15.763  34.731  50.612
33752W        W25676  15.727  12.258  52.873
33753W        W25677  46.217   7.780  51.052
33754W        W25678  27.222  45.207  50.161
33755W        W25679  18.752  40.695  53.321
33756W        W25680  27.727  14.251  50.130
33757W        W25681  23.750  44.705  49.706
33758W        W25682  21.750  42.729  50.588
33759W        W25683  15.252  12.779  51.062
33760W        W25684  29.743  48.216  51.492
33761W        W25685  37.694  19.248  51.052
33762W        W25686   0.766  18.728  50.135
33763W        W25687  25.233  32.237  51.063
33764W        W25688  37.713  42.183  49.705
33765W        W25689  20.265   2.790  49.695
33766W        W25690  18.738   2.762  51.039
33767W        W25691   3.274  18.742  50.582
33768W        W25692  12.751  36.215  51.515
33769W        W25693  31.230  36.729  52.880
33770W        W25694  14.759  27.247  53.360
33771W        W25695   9.772  22.234  51.071
33772W        W25696  34.205  13.248  53.349
33773W        W25697  38.203  47.710  53.354
33774W        W25698  43.184  29.706  50.144
33775W        W25699  16.249   8.274  51.507
33776W        W25700  36.734  34.695  52.447
33777W        W25701   8.738  32.212  52.873
33778W        W25702  31.246   1.250  50.601
33779W        W25703  17.228  23.244  50.581
33780W        W25704  45.212  36.690  52.866
33781W        W25705  21.727  26.718  50.165
33782W        W25706  45.188  12.239  51.989
33783W        W25707  39.709   6.787  53.781
33784W        W25708   0.784  29.232  52.874
33785W        W25709   6.743   3.748  52.421
33786W        W25710  37.233   8.261  50.607
33787W        W25711  11.742  43.189  51.038
33788W        W25712   3.272  19.763  51.048
33789W        W25713   5.748  47.693  52.439
33790W        W25714  12.753  30.215  51.978
33791W        W25715  43.187  46.716  53.787
33792W        W25716  33.732  46.712  49.675
33793W        W25717  13.748  27.229  50.141
33794W        W25718  10.282  47.210  50.136
33795W        W25719  24.216  27.744  51.078
33796W        W25720  41.195  20.260  51.510
33797W        W25721  31.711  14.773  50.584
33798W        W25722  11.742  41.194  50.585
33799W        W25723  26.709  40.716  53.816
33800W        W25724  15.270  19.750  53.793
33801W        W25725  47.173   5.254  51.513
33802W        W25726  15.731  38.693  53.335
33803W        W25727  44.696   2.785  50.598
33804W        W25728  28.752  19.230  49.670
33805W        W25729   5.244  20.741  50.613
33806W        W25730   6.262   0.288  51.035
33807W        W25731  26.710   4.252  51.506
33808W        W25732  29.210  26.709  52.886
33809W        W25733  21.758   1.279  53.807
33810W        W25734   5.765  45.177  50.617
33811W        W25735   0.274  17.733  53.806
33812W        W25736  31.709  25.228  53.356
33813W        W25737  23.749  22.759  51.975
33814W        W25738  29.209  22.235  53.333
33815W        W25739  41.729  47.206  50.159
33816W        W25740  23.239  26.209  53.804
33817W        W25741   5.755  47.707  51.036
33818W        W25742  31.722  35.192  51.528
33819W        W25743  43.726  15.268  51.050
33820W        W25744   7.278  24.720  52.901
33821W        W25745  23.716  10.245  51.953
33822W        W25746  46.214  48.188  52.425
33823W        W25747   5.272  47.681  53.337
33824W        W25748  19.745   1.768  53.791
33825W        W25749  19.266  29.735  51.948
33826W        W25750  11.246  32.198  53.360
33827W        W25751  34.707   3.288  53.322
33828W        W25752  26.735  15.744  51.041
33829W        W25753  14.734  10.740  52.417
33830W        W25754  44.183  36.711  53.789
33831W        W25755   0.755  20.227  51.953
33832W        W25756  32.211  47.211  50.609
33833W        W25757  41.232   1.788  51.035
33834W        W25758  29.247  14.270  51.517
33835W        W25759  20.247   6.766  52.891
33836W        W25760   6.279   5.744  49.710
33837W        W25761  40.700   7.782  51.038
33838W        W25762  19.757  46.714  51.946
33839W        W25763  31.231   5.762  50.128
33840W        W25764  43.693  40.190  52.891
33841W        W25765  45.681   2.248  51.950
33842W        W25766  30.215  34.212  52.885
33843W        W25767   6.740   0.292  51.077
33844W        W25768  38.218  40.224  51.076
33845W        W25769  27.745  14.775  52.875
33846W        W25770  12.771  14.263  53.817
33847W        W25771  33.238  24.257  49.679
33848W        W25772  30.236   6.783  53.783
33849W        W25773  31.233  16.241  52.879
33850W        W25774  36.728  36.707  53.358
33851W        W25775  48.195  39.186  50.617
33852W        W25776  24.234  29.247  50.622
33853W        W25777  31.716  25.757  52.446
33854W        W25778   9.253  39.196  51.512
33855W        W25779  37.204  46.177  53.322
33856W        W25780  25.221   3.260  51.041
33857W        W25781  43.716  29.745  51.051
33858W        W25782   1.782  27.733  51.969
33859W        W25783  32.201  47.197  52.904
33860W        W25784  13.245  19.749  49.675
33861W        W25785  28.235  25.237  49.693
33862W        W25786  47.197  16.727  51.972
33863W        W25787  11.243  20.762  50.165
33864W        W25788  35.215  33.706  50.162
33865W        W25789   8.771  26.225  50.610
33866W        W25790  25.713  14.267  52.863
33867W        W25791  11.752  20.753  52.881
33868W        W25792  39.225  47.200  51.040
33869W        W25793   1.282  10.749  52.889
33870W        W25794  14.760  37.214  52.445
33871W        W25795   0.284   0.771  52.445
33872W        W25796  24.244  16.752  52.423
33873W        W25797  10.782  23.219  51.501
33874W        W25798  17.269  13.238  50.124
33875W        W25799   2.776  10.256  51.044
33876W        W25800  31.199  23.746  50.621
33877W        W25801  45.713  11.732  51.530
33878W        W25802  36.706  29.733  50.136
33879W        W25803   1.783  31.716  52.437
33880W        W25804  41.724  27.734  50.614
33881W        W25805  39.217  21.253  50.578
33882W        W25806  27.254  37.702  51.515
33883W        W25807   5.782   6.767  51.978
33884W        W25808  27.242  40.733  51.067
33885W        W25809  27.753  26.721  51.503
33886W        W25810  34.203  46.702  53.795
33887W        W25811  24.242  13.271  51.054
33888W        W25812  15.255  21.229  50.132
33889W        W25813  47.695  34.209  51.988
33890W        W25814  47.181  21.736  52.884
33891W        W25815  30.211   9.748  52.443
33892W        W25816  26.240  33.713  50.148
33893W        W25817  37.707   6.286  52.860
33894W        W25818  30.225   7.773  51.519
33895W        W25819  21.218   5.243  53.778
33896W        W25820  11.740  28.725  49.709
33897W        W25821   8.250  19.220  50.146
33898W        W25822  14.243  48.210  53.356
33899W        W25823  29.218  16.743  52.893
33900W        W25824  29.737  25.243  52.863
33901W        W25825  15.750  18.768  50.155
33902W        W25826  20.718  33.244  51.986
33903W        W25827  12.773   9.779  50.125
33904W        W25828  10.746  18.258  51.960
33905W        W25829  26.243  19.241  51.040
33906W        W25830   0.291  21.729  50.594
33907W        W25831  26.731  27.742  52.432
33908W        W25832  38.227  47.699  53.778
33909W        W25833  22.236   0.776  50.607
33910W        W25834  18.249   2.787  51.961
33911W        W25835  23.231  14.232  52.872
33912W        W25836  32.245  17.758  52.417
33913W        W25837   8.276  46.714  53.347
33914W        W25838   1.251  41.722  51.960
33915W        W25839  30.207  25.238  51.988
33916W        W25840   8.737  42.192  53.337
33917W        W25841   7.281  46.703  51.494
33918W        W25842  42.206  31.732  51.982
33919W        W25843  14.735   5.262  50.156
33920W        W25844  29.238  43.212  51.043
33921W        W25845  20.232   1.767  51.985
33922W        W25846  14.746   7.253  51.990
33923W        W25847  18.266  38.706  51.042
33924W        W25848  38.213  15.250  52.880
33925W        W25849  24.242  40.709  53.809
33926W        W25850  40.696  10.252  50.145
33927W        W25851  11.281  31.221  52.904
33928W        W25852  22.261   3.791  50.618
33929W        W25853  16.735  35.223  52.862
33930W        W25854  28.708   5.280  49.665
33931W        W25855  17.268  48.174  51.522
33932W        W25856  43.720  22.750  51.951
33933W        W25857  38.189   9.251  53.352
33934W        W25858  43.216  13.750  49.700
33935W        W25859   7.250  27.254  50.601
33936W        W25860  41.726  26.732  51.058
33937W        W25861  26.251  45.694  51.974
33938W        W25862  23.752  36.719  53.814
33939W        W25863   9.778  16.272  53.782
33940W        W25864  29.242  35.726  50.131
33941W        W25865  11.758  12.746  52.420
33942W        W25866  42.227   9.735  53.794
33943W        W25867  37.716  17.257  49.682
33944W        W25868  41.211   4.293  52.418
33945W        W25869  38.729  26.230  53.319
33946W        W25870  24.747  40.210  51.964
33947W        W25871  27.206  24.735  53.340
33948W        W25872  27.244  20.259  51.954
33949W        W25873  25.251  21.752  52.413
33950W        W25874  41.699  35.216  52.868
33951W        W25875  47.689   2.786  53.808
33952W        W25876   0.268  30.747  50.608
33953W        W25877  42.726  34.217  52.424
33954W        W25878  46.192  11.761  51.969
33955W        W25879  23.718  14.759  50.589
33956W        W25880  34.713  45.188  51.063
33957W        W25881   0.789  41.197  49.704
33958W        W25882  21.249  23.233  50.596
33959W        W25883   8.766  14.759  50.144
33960W        W25884  33.240  46.674  51.978
33961W        W25885  24.255  35.219  53.321
33962W        W25886  10.769   4.278  52.441
33963W        W25887  43.213  35.703  52.408
33964W        W25888  35.691  38.715  52.408
33965W        W25889   1.249  28.248  53.790
33966W        W25890  27.216   7.286  49.668
33967W        W25891  46.709  29.202  50.608
33968W        W25892  38.202  30.735  53.343
33969W        W25893  47.175  23.218  50.611
33970W        W25894  20.718   6.774  50.610
33971W        W25895  31.223  44.680  53.341
33972W        W25896   5.768  30.217  51.949
33973W        W25897  13.758  35.740  53.317
33974W        W25898  38.215   4.243  50.590
33975W        W25899  10.747  23.746  50.159
33976W        W25900   6.277  12.764  52.898
33977W        W25901  34.206  29.705  50.596
33978W        W25902   0.787  30.726  50.613
33979W        W25903  14.264   3.761  51.966
33980W        W25904  20.743  35.240  50.162
33981W        W25905  11.243  13.775  51.045
33982W        W25906  39.703  36.219  50.138
33983W        W25907  39.200   0.756  51.524
33984W        W25908  44.188  15.233  52.422
33985W        W25909  13.267  35.198  51.970
33986W        W25910  22.239  16.232  52.447
33987W        W25911  11.767  33.718  51.063
33988W        W25912  23.752  21.220  51.518
33989W        W25913  42.185  41.693  52.890
33990W        W25914   7.247   2.773  50.134
33991W        W25915  21.732  13.234  52.884
33992W        W25916  38.223  48.178  52.422
33993W        W25917   8.278   9.770  52.406
33994W        W25918  21.745  14.249  50.605
33995W        W25919  29.211  37.226  50.159
33996W        W25920  28.206  12.778  52.420
33997W        W25921   6.743  20.248  52.415
33998W        W25922  14.246  24.717  50.609
33999W        W25923  12.762  26.706  50.620
34000W        W25924  33.743  16.729  51.501
34001W        W25925   3.748  30.215  50.124
34002W        W25926  26.733  22.216  51.981
34003W        W25927  37.212   3.750  52.419
34004W        W25928  38.194  15.252  51.960
34005W        W25929  15.227  31.209  52.447
34006W        W25930  14.248  39.706  50.580
34007W        W25931  15.245  14.239  51.503
34008W        W25932  35.195  41.700  51.513
34009W        W25933  29.716  25.235  51.513
34010W        W25934  46.187   9.281  52.434
34011W        W25935   9.265  47.219  51.075
34012W        W25936  26.741  17.232  51.040
34013W        W25937  42.221   6.249  53.816
34014W        W25938  10.271  19.734  49.684
34015W        W25939   9.283  12.246  52.883
34016W        W25940  26.222  40.693  50.587
34017W        W25941  18.238  42.206  53.359
34018W        W25942  30.203  27.216  51.074
34019W        W25943  33.704  36.730  50.150
34020W        W25944  13.771  29.739  51.054
34021W        W25945  47.699  41.698  53.776
34022W        W25946  23.735  12.241  49.701
34023W        W25947  15.757   4.763  53.348
34024W        W25948  38.201  30.720  51.514
34025W        W25949  32.743  43.687  49.690
34026W        W25950   6.247  34.721  52.430
34027W        W25951  29.249  34.704  53.338
34028W        W25952  47.185  15.269  51.977
34029W        W25953   9.739  29.207  52.872
34030W        W25954   2.772  41.220  51.072
34031W        W25955  28.749   0.264  53.798
34032W        W25956  43.184   8.252  52.446
34033W        W25957  39.232  23.713  51.041
34034W        W25958   6.286  27.215  50.585
34035W        W25959  31.221  16.226  52.426
34036W        W25960   0.756  32.217  50.155
34037W        W25961  22.242  10.762  51.992
34038W        W25962  33.722   0.278  51.988
34039W        W25963   0.266  38.194  51.511
34040W        W25964  25.247  32.736  51.057
34041W        W25965   0.274  34.712  53.323
34042W        W25966  40.196  43.720  52.892
34043W        W25967  28.750  36.698  51.971
34044W        W25968   8.268   8.750  50.123
34045W        W25969  30.201  29.718  52.432
34046W        W25970  15.752  22.218  51.063
34047W        W25971  21.238  45.702  50.606
34048W        W25972  23.259  16.758  49.666
34049W        W25973   3.280   7.782  50.580
34050W        W25974  20.721  25.724  52.895
34051W        W25975  14.266  34.197  50.605
34052W        W25976  44.177  12.246  51.051
34053W        W25977  17.232  32.217  50.578
34054W        W25978  28.745   5.275  52.447
34055W        W25979  16.746  36.725  51.992
34056W        W25980   1.277  16.763  50.620
34057W        W25981  37.205  24.254  51.982
34058W        W25982  26.750  28.223  50.594
34059W        W25983   1.267   6.244  50.577
34060W        W25984  21.257  25.711  51.062
34061W        W25985  35.206  18.262  51.503
34062W        W25986  44.203   3.759  50.589
34063W        W25987   4.771  34.696  51.056
34064W        W25988  46.718  12.254  50.610
34065W        W25989   0.270  27.753  50.147
34066W        W25990  23.230  19.766  51.510
34067W        W25991  20.724  27.706  49.671
34068W        W25992   9.777   9.267  52.409
34069W        W25993  36.193  23.261  52.420
34070W        W25994  32.204  20.726  51.035
34071W        W25995  16.256  41.717  53.784
34072W        W25996  23.212   9.271  52.411
34073W        W25997  37.202  39.711  53.813
34074W        W25998  32.202  36.228  52.863
34075W        W25999  26.731  12.766  51.040
34076W        W26000  19.233  21.761  51.046
34077W        W26001  19.727  26.239  52.864
34078W        W26002  43.680  27.206  51.966
34079W        W26003  18.260  45.675  51.988
34080W        W26004   2.747  18.255  51.973
34081W        W26005  26.243   7.261  50.607
34082W        W26006   9.755  33.217  51.957
34083W        W26007  47.676  38.196  50.166
34084W        W26008  21.222  16.239  53.360
34085W        W26009   0.749   8.264  51.072
34086W        W26010   5.784  43.220  50.583
34087W        W26011   4.746   7.777  52.430
34088W        W26012   0.776  15.733  52.864
34089W        W26013   3.268  41.691  53.340
34090W        W26014  32.201  37.198  52.410
34091W        W26015  45.197  45.682  52.866
34092W        W26016  15.731  22.228  50.131
34093W        W26017  19.757  27.217  49.704
34094W        W26018   5.790   9.747  51.068
34095W        W26019  24.258  23.227  51.507
34096W        W26020  30.739  27.734  51.973
34097W        W26021  25.729   0.285  51.508
34098W        W26022  31.241  46.675  53.781
34099W        W26023  25.217  34.733  51.528
34100W        W26024  17.765  48.207  50.131
34101W        W26025  38.203  26.208  50.582
34102W        W26026  23.220  32.227  50.600
34103W        W26027  26.753  37.220  51.972
34104W        W26028  31.707  12.769  52.433
34105W        W26029  25.741  20.233  52.893
34106W        W26030  45.720   3.286  49.679
34107W        W26031  46.718  41.716  51.506
34108W        W26032   8.249  28.711  53.331
34109W        W26033  10.774  18.254  51.512
34110W        W26034   0.775  11.735  50.597
34111W        W26035  10.767  31.236  51.947
34112W        W26036  42.215  43.214  50.154
34113W        W26037  46.197   8.260  53.787
34114W        W26038   0.780  45.680  52.903
34115W        W26039  39.696   1.270  51.050
34116W        W26040  16.727  38.695  50.582
34117W        W26041   8.757  25.253  49.696
34118W        W26042  45.711  32.216  53.802
34119W        W26043  10.248  33.704  49.693
34120W        W26044  23.741  28.242  53.346
34121W        W26045  32.735   8.738  51.950
34122W        W26046  34.197  37.697  51.495
34123W        W26047  11.780   2.265  51.077
34124W        W26048  27.211  32.737  51.959
34125W        W26049  37.722   2.759  52.867
34126W        W26050  18.242  43.221  53.343
34127W        W26051  46.204  10.258  50.164
34128W        W26052  17.748   2.287  53.804
34129W        W26053  44.190   2.751  50.132
34130W        W26054  17.253  13.242  52.426
34131W        W26055  22.257  11.279  52.415
34132W        W26056   7.269  14.230  51.950
34133W        W26057  40.715   0.795  51.494
34134W        W26058  25.243  16.236  53.325
34135W        W26059  19.724  11.757  53.804
34136W        W26060  38.702   8.252  50.612
34137W        W26061  43.699  26.243  53.329
34138W        W26062  17.725   3.256  51.969
34139W        W26063  26.750  33.736  53.791
34140W        W26064  12.748  26.244  49.700
34141W        W26065   1.259  26.226  51.523
34142W        W26066  21.264   0.288  51.529
34143W        W26067  16.232  42.715  53.776
34144W        W26068  14.242  41.692  53.350
34145W        W26069   3.248  10.276  50.582
34146W        W26070  15.242   1.795  51.034
34147W        W26071  46.199   9.261  50.123
34148W        W26072  43.213  19.224  52.421
34149W        W26073  32.706  43.182  52.426
34150W        W26074  43.699   0.278  52.445
34151W        W26075  16.235   6.776  52.412
34152W        W26076  33.221   7.783  53.808
34153W        W26077   7.752   8.249  52.872
34154W        W26078  23.223  47.700  50.608
34155W        W26079   7.242  17.235  51.957
34156W        W26080  31.700  32.231  51.495
34157W        W26081  11.773  28.726  51.497
34158W        W26082  30.205   6.773  52.892
34159W        W26083  26.715  13.759  51.057
34160W        W26084  24.259   9.749  51.951
34161W        W26085  23.747  12.262  52.865
34162W        W26086   8.780   5.248  51.520
34163W        W26087   6.740  20.764  52.877
34164W        W26088  47.706  13.244  50.154
34165W        W26089  33.698   0.784  51.963
34166W        W26090  42.695  47.174  50.599
34167W        W26091  27.239  11.262  53.358
34168W        W26092  22.742  14.251  53.790
34169W        W26093   2.292  29.222  51.991
34170W        W26094  34.200  12.752  51.977
34171W        W26095  18.732  32.740  53.785
34172W        W26096  17.268  30.721  51.979
34173W        W26097  18.266  17.733  53.330
34174W        W26098  40.196   7.248  49.674
34175W        W26099  24.740   7.760  53.343
34176W        W26100   6.777  11.242  53.342
34177W        W26101  25.223  27.714  51.531
34178W        W26102  36.205  29.248  53.359
34179W        W26103  12.252  17.224  50.135
34180W        W26104  35.704  21.255  51.069
34181W        W26105  23.225  15.271  51.492
34182W        W26106  14.243  34.733  52.881
34183W        W26107  15.243  41.688  49.678
34184W        W26108  42.705  43.678  51.970
34185W        W26109  20.225  26.249  53.814
34186W        W26110  47.697  36.712  50.604
34187W        W26111  22.224  16.263  51.528
34188W        W26112  24.737  16.760  53.328
34189W        W26113  20.226  44.697  51.963
34190W        W26114  16.762  30.707  50.598
34191W        W26115   7.742  30.216  50.615
34192W        W26116  27.245  39.714  52.903
34193W        W26117   3.762  11.268  51.044
34194W        W26118   2.794  36.195  51.980
34195W        W26119  24.223  32.738  49.692
34196W        W26120   2.758  35.204  51.064
34197W        W26121  31.232  19.764  52.880
34198W        W26122  15.766  24.220  50.136
34199W        W26123  18.252  31.231  50.146
34200W        W26124  18.249   0.252  53.341
34201W        W26125  18.250  40.232  52.865
34202W        W26126   8.264  45.210  53.791
34203W        W26127   4.279  25.240  50.124
34204W        W26128  20.247  14.770  50.128
34205W        W26129   2.747  29.737  52.413
34206W        W26130  40.720  16.761  51.966
34207W        W26131  30.726  17.743  53.336
34208W        W26132  15.764  15.728  53.359
34209W        W26133  28.712   3.754  53.352
34210W        W26134  46.192   3.789  49.704
34211W        W26135   2.264   8.760  51.534
34212W        W26136  25.248  42.721  51.077
34213W        W26137  40.188  28.218  49.672
34214W        W26138   3.262   5.775  53.336
34215W        W26139  48.205  35.720  50.605
34216W        W26140  42.689  12.773  53.792
34217W        W26141  14.740   0.782  51.988
34218W        W26142  35.235  46.695  49.698
34219W        W26143  46.191  40.193  51.512
34220W        W26144  16.269  12.768  53.351
34221W        W26145   5.243  28.746  51.531
34222W        W26146  44.189  29.251  53.321
34223W        W26147  22.718  18.257  49.684
34224W        W26148  31.214  13.255  53.792
34225W        W26149  34.740  43.220  50.130
34226W        W26150  37.731  38.702  51.034
34227W        W26151   9.767  45.199  52.406
34228W        W26152  19.258  29.710  52.891
34229W        W26153   3.250  42.225  49.698
34230W        W26154   1.782  35.727  51.973
34231W        W26155   1.755   2.750  52.868
34232W        W26156  27.742  11.249  51.517
34233W        W26157  24.244  46.690  52.902
34234W        W26158  40.723  11.768  50.582
34235W        W26159  41.185  21.232  51.076
34236W        W26160  30.707   6.261  51.977
34237W        W26161   0.273  41.183  51.974
34238W        W26162  40.695  38.220  53.815
34239W        W26163   7.786  43.216  51.951
34240W        W26164  47.198  11.277  52.869
34241W        W26165  24.746  18.769  53.333
34242W        W26166   8.763  37.189  49.685
34243W        W26167  32.221  27.709  50.590
34244W        W26168  44.216   4.267  52.438
34245W        W26169  16.259  42.213  52.433
34246W        W26170  24.738  22.252  49.706
34247W        W26171  15.258  16.746  53.319
34248W        W26172   9.250  47.681  51.076
34249W        W26173  48.216  36.699  51.534
34250W        W26174  44.199  24.235  52.418
34251W        W26175  20.250  14.727  52.862
34252W        W26176  38.706  47.706  52.427
34253W        W26177  20.723  19.242  50.134
34254W        W26178  48.209  31.718  53.327
34255W        W26179  23.751  37.696  53.778
34256W        W26180  30.723  28.235  50.601
34257W        W26181  17.731  20.749  51.038
34258W        W26182   6.286  34.241  53.785
34259W        W26183  28.247   3.774  53.340
34260W        W26184   2.267  44.221  50.143
34261W        W26185  19.268   3.790  52.871
34262W        W26186  15.258  41.201  51.964
34263W        W26187  10.261   8.241  50.152
34264W        W26188  26.728  26.740  51.074
34265W        W26189   7.271  19.258  51.052
34266W        W26190  21.246  16.752  53.351
34267W        W26191  18.251  36.728  52.903
34268W        W26192  13.233  37.728  50.123
34269W        W26193  26.747  32.226  51.984
34270W        W26194  10.237  17.243  52.419
34271W        W26195  19.262  19.258  50.609
34272W        W26196  45.675  41.219  50.152
34273W        W26197  41.196   4.784  52.881
34274W        W26198  45.700  24.755  52.414
34275W        W26199  22.218  31.208  53.322
34276W        W26200  42.682  24.238  50.617
34277W        W26201  20.744  12.759  49.694
34278W        W26202  26.209   1.263  50.599
34279W        W26203  28.752  11.274  50.148
34280W        W26204   6.245  22.248  51.955
34281W        W26205  36.209  14.236  51.989
34282W        W26206  14.259   9.264  50.133
34283W        W26207   6.788  41.218  51.509
34284W        W26208  24.233  42.698  53.343
34285W        W26209  21.717   7.248  50.127
34286W        W26210   6.764  26.231  49.692
34287W        W26211   8.259  19.234  53.345
34288W        W26212  29.718   5.745  51.535
34289W        W26213  42.209  39.707  50.599
34290W        W26214  18.745  23.214  51.504
34291W        W26215  35.731  10.245  52.425
34292W        W26216  38.235  27.243  52.893
34293W        W26217  29.731   7.286  52.891
34294W        W26218  48.184  28.209  49.694
34295W        W26219  17.742  30.744  51.520
34296W        W26220  29.238  13.270  51.966
34297W        W26221  17.727  27.243  53.814
34298W        W26222  17.241   8.278  53.793
34299W        W26223   5.248  41.192  49.690
34300W        W26224  20.716  45.179  53.317
34301W        W26225  48.202  17.251  51.045
34302W        W26226  17.754  38.736  51.521
34303W        W26227  19.748  21.241  50.601
34304W        W26228  16.246   9.736  51.982
34305W        W26229   3.779  32.207  52.881
34306W        W26230   7.739  40.216  50.134
34307W        W26231  32.232  23.220  50.129
34308W        W26232  28.718   9.241  50.147
34309W        W26233  24.231   1.756  52.430
34310W        W26234  45.196  18.253  51.034
34311W        W26235  46.686  12.770  51.041
34312W        W26236  24.250   6.742  51.969
34313W        W26237   9.273  26.211  51.057
34314W        W26238  10.781  26.707  50.159
34315W        W26239  39.223   3.259  50.138
34316W        W26240   3.773  17.756  52.442
34317W        W26241   5.282   8.751  50.601
34318W        W26242  42.205  42.680  52.873
34319W        W26243  32.220  10.766  51.990
34320W        W26244  22.734  40.685  51.960
34321W        W26245   4.754  44.189  52.894
34322W        W26246  43.194  47.195  52.443
34323W        W26247  30.249   2.755  53.782
34324W        W26248   7.284  38.205  52.447
34325W        W26249  24.219  19.243  52.441
34326W        W26250  42.708  35.738  52.896
34327W        W26251   3.289   1.782  52.410
34328W        W26252  24.260  12.744  52.868
34329W        W26253  31.224  28.210  53.322
34330W        W26254  43.224  46.686  52.415
34331W        W26255  28.725  47.707  51.533
34332W        W26256  30.228   1.287  51.532
34333W        W26257  34.731  40.204  53.332
34334W        W26258  46.695   4.749  51.496
34335W        W26259  16.252  35.235  51.983
34336W        W26260  21.242  35.216  51.526
34337W        W26261  38.198  48.196  50.126
34338W        W26262  32.203  21.719  52.870
34339W        W26263  30.225  23.249  53.329
34340W        W26264  18.227  10.253  50.159
34341W        W26265  12.750  37.204  49.682
34342W        W26266   3.256  43.721  52.896
34343W        W26267  23.214  40.692  52.427
34344W        W26268  36.738   6.744  50.615
34345W        W26269  39.720  23.735  50.142
34346W        W26270  19.740  38.236  49.691
34347W        W26271  27.737  44.723  49.670
34348W        W26272  20.748  45.209  53.810
34349W        W26273  30.700  40.230  49.689
34350W        W26274  29.707  12.272  51.532
34351W        W26275  36.233  40.712  51.511
34352W        W26276  22.232  44.721  49.673
34353W        W26277  17.242  44.680  53.803
34354W        W26278   4.790  13.758  53.345
34355W        W26279  30.728   1.297  49.694
34356W        W26280  29.732  21.732  53.782
34357W        W26281  47.675  21.255  53.348
34358W        W26282   5.255  33.245  50.601
34359W        W26283  23.732  35.717  49.681
34360W        W26284  19.242  45.221  49.706
34361W        W26285  17.225  44.201  52.880
34362W        W26286  36.208  41.707  49.689
34363W        W26287  41.697  32.233  49.674
34364W        W26288  24.744  34.231  52.443
34365W        W26289  31.200  13.740  52.409
34366W        W26290  20.257  34.735  50.617
34367W        W26291  17.231  15.239  52.412
34368W        W26292  10.733  19.249  52.901
34369W        W26293  30.701   5.266  52.903
34370W        W26294  16.740  17.756  52.409
34371W        W26295  25.720  47.698  51.049
34372W        W26296   4.273  11.243  52.442
34373W        W26297  36.728   7.757  51.949
34374W        W26298  26.743  17.228  51.970
34375W        W26299  28.235  39.693  50.137
34376W        W26300   0.777  39.690  51.505
34377W        W26301  41.223  45.718  52.882
34378W        W26302   4.743   2.773  53.800
34379W        W26303  24.252  36.700  53.818
34380W        W26304  43.718  32.727  51.981
34381W        W26305  19.720  43.696  52.897
34382W        W26306  35.226  11.733  52.894
34383W        W26307   6.752   0.264  51.516
34384W        W26308  19.722  18.232  50.164
34385W        W26309  24.745  43.226  52.435
34386W        W26310   6.279   0.294  51.522
34387W        W26311  27.248  36.706  50.148
34388W        W26312  48.199  41.193  51.050
34389W        W26313  32.222   0.792  52.874
34390W        W26314  11.772  30.202  51.492
34391W        W26315  29.722  33.707  53.814
34392W        W26316   1.751  24.709  52.448
34393W        W26317  16.249  34.694  52.416
34394W        W26318  34.699  45.723  51.982
34395W        W26319   8.784  47.206  51.079
34396W        W26320  23.745   4.746  52.881
34397W        W26321  29.720  44.705  51.068
34398W        W26322   3.276   8.238  52.890
34399W        W26323   2.270  23.719  49.689
34400W        W26324  27.706  27.730  53.334
34401W        W26325  41.713  39.229  49.674
34402W        W26326  48.207  38.702  51.495
34403W        W26327   0.296  28.738  50.591
34404W        W26328  43.185  32.206  52.410
34405W        W26329  37.228  26.721  51.051
34406W        W26330  31.228  22.759  53.320
34407W        W26331  27.725  18.246  53.342
34408W        W26332  24.739  27.751  53.806
34409W        W26333   5.275  16.251  49.688
34410W        W26334  46.684  12.267  53.338
34411W        W26335  41.724   1.771  51.500
34412W        W26336  14.245  47.208  53.809
34413W        W26337  26.719   0.768  52.420
34414W        W26338  11.764  28.739  51.050
34415W        W26339  47.701   8.246  53.799
34416W        W26340   0.264  20.736  51.952
34417W        W26341  29.248   2.267  51.043
34418W        W26342  41.726   3.752  52.862
34419W        W26343  32.708  47.204  53.354
34420W        W26344  11.744  25.232  53.814
34421W        W26345  31.727  47.690  49.689
34422W        W26346  26.747  24.211  50.581
34423W        W26347  35.737  39.693  49.673
34424W        W26348   1.254   9.772  51.511
34425W        W26349  28.245  47.693  50.133
34426W        W26350  12.760  14.250  53.319
34427W        W26351  28.252  20.245  51.965
34428W        W26352  26.751  12.264  50.151
34429W        W26353  48.176  44.706  49.701
34430W        W26354  28.727  13.766  49.680
34431W        W26355  15.773  29.747  49.676
34432W        W26356  27.243  43.187  50.164
34433W        W26357  35.727  38.230  51.519
34434W        W26358  27.207  32.245  51.950
34435W        W26359  40.203   0.764  51.535
34436W        W26360  21.252  41.231  49.680
34437W        W26361  17.737  37.716  51.986
34438W        W26362  42.186   8.753  53.334
34439W        W26363  29.705  46.712  51.520
34440W        W26364  10.255  33.237  52.888
34441W        W26365  34.700   7.774  50.589
34442W        W26366  38.732  22.757  50.141
34443W        W26367  41.696  36.201  49.692
34444W        W26368   9.238  11.232  52.413
34445W        W26369   9.775  34.733  51.520
34446W        W26370   4.756   8.261  50.603
34447W        W26371  26.744  26.224  51.048
34448W        W26372  39.730  32.198  53.340
34449W        W26373   4.271  34.222  51.040
34450W        W26374   2.251  37.717  51.521
34451W        W26375  14.234  45.185  52.869
34452W        W26376  27.227  34.742  53.320
34453W        W26377  18.239  24.227  50.584
34454W        W26378  46.721  45.682  52.428
34455W        W26379  23.716   8.282  53.322
34456W        W26380  46.209   2.286  49.708
34457W        W26381  40.203  40.211  53.336
34458W        W26382  16.766  42.216  50.583
34459W        W26383  16.228  37.193  52.406
34460W        W26384  18.253  21.252  49.705
34461W        W26385  28.242   6.759  52.407
34462W        W26386  35.216  25.212  50.121
34463W        W26387  14.271  33.230  53.786
34464W        W26388  25.756  41.219  52.411
34465W        W26389   7.272  29.734  50.124
34466W        W26390  31.712  19.735  52.412
34467W        W26391  31.700  38.225  52.447
34468W        W26392   6.284  36.732  53.785
34469W        W26393  39.213  31.727  51.991
34470W        W26394  25.744  46.194  52.893
34471W        W26395  47.190  42.200  50.600
34472W        W26396  48.171  23.727  50.591
34473W        W26397   9.259   0.796  53.342
34474W        W26398   5.283  33.723  50.612
34475W        W26399  18.720  12.733  50.594
34476W        W26400  19.245  30.727  52.414
34477W        W26401  37.692  22.722  50.590
34478W        W26402  24.741  46.723  52.437
34479W        W26403  32.724  44.213  52.413
34480W        W26404  27.253  39.206  53.334
34481W        W26405  14.727  20.264  49.685
34482W        W26406  17.756  44.717  49.666
34483W        W26407  27.709  17.748  51.949
34484W        W26408  43.217   1.283  49.685
34485W        W26409  13.753  22.237  51.066
34486W        W26410  39.235  39.685  51.988
34487W        W26411  22.724  45.188  50.153
34488W        W26412   9.741  33.732  50.138
34489W        W26413  18.739  27.735  49.690
34490W        W26414  24.237  34.206  49.669
34491W        W26415  16.763  32.240  51.491
34492W        W26416   1.281  22.747  51.058
34493W        W26417  22.242   5.260  53.337
34494W        W26418  10.736  41.216  51.953
34495W        W26419  39.235  25.223  52.442
34496W        W26420  21.758  10.259  53.324
34497W        W26421  26.214  27.709  51.063
34498W        W26422   5.263  22.745  53.336
34499W        W26423  18.764  36.732  51.508
34500W        W26424  19.762   8.257  53.344
34501W        W26425   4.754  47.178  51.950
34502W        W26426  17.733  17.242  51.044
34503W        W26427   6.768  36.713  49.701
34504W        W26428  16.272  26.243  51.964
34505W        W26429   3.792  19.227  49.690
34506W        W26430  30.234  43.727  51.523
34507W        W26431  25.720  42.727  49.689
34508W        W26432  24.715  25.252  50.142
34509W        W26433  15.763  12.254  51.976
34510W        W26434   9.236  10.736  49.706
34511W        W26435  24.740  39.726  50.152
34512W        W26436   8.283  36.219  51.957
34513W        W26437  31.210  13.249  50.590
34514W        W26438  35.208  22.740  51.948
34515W        W26439  23.218  18.751  52.416
34516W        W26440   7.240  33.236  53.783
34517W        W26441   2.289  19.261  51.955
34518W        W26442  27.254  19.219  51.987
34519W        W26443   7.751  10.263  53.793
34520W        W26444  41.685  38.728  52.415
34521W        W26445  14.729   6.772  50.586
34522W        W26446   6.751  12.275  53.331
34523W        W26447   4.271  15.730  51.971
34524W        W26448  25.742   3.281  51.535
34525W        W26449  35.206  44.179  53.780
34526W        W26450  17.249   5.782  52.874
34527W        W26451  32.708  32.206  52.406
34528W        W26452  17.739  28.719  51.988
34529W        W26453   7.783  17.233  52.903
34530W        W26454  43.218  39.209  51.508
34531W        W26455  26.710   1.270  50.121
34532W        W26456  15.764  36.721  50.604
34533W        W26457   2.292   0.777  52.403
34534W        W26458  24.236  14.734  52.874
34535W        W26459   4.270   6.757  51.515
34536W        W26460  40.206   1.783  50.592
34537W        W26461  39.208  30.245  53.804
34538W        W26462   2.750  33.733  52.870
34539W        W26463  30.718   6.270  52.900
34540W        W26464  15.243  25.214  53.804
34541W        W26465   1.752   4.268  52.446
34542W        W26466  13.735   6.759  52.424
34543W        W26467  15.748   0.773  51.980
34544W        W26468  27.220  26.748  53.354
34545W        W26469  43.705  17.256  51.519
34546W        W26470  37.716   2.771  53.815
34547W        W26471  18.740  15.252  53.322
34548W        W26472  16.762   9.762  51.970
34549W        W26473  40.199  43.182  52.412
34550W        W26474  42.181   7.772  51.963
34551W        W26475   3.778  11.748  53.803
34552W        W26476  28.211  23.736  51.508
34553W        W26477  37.719  37.734  53.809
34554W        W26478  36.732  29.233  52.435
34555W        W26479  19.744  39.723  52.897
34556W        W26480  17.754   0.272  53.817
34557W        W26481  22.215  35.230  53.796
34558W        W26482  36.723  31.718  52.417
34559W        W26483  22.743  48.199  53.792
34560W        W26484  43.690  13.732  50.599
34561W        W26485   6.750  38.202  51.532
34562W        W26486  23.250  48.215  51.959
34563W        W26487   8.278  32.237  49.676
34564W        W26488  38.712  21.232  52.437
34565W        W26489  43.210  30.220  53.816
34566W        W26490  19.732  11.778  51.534
34567W        W26491  15.247  28.742  50.618
34568W        W26492  33.725  28.244  49.673
34569W        W26493  41.683   3.256  52.903
34570W        W26494   7.748  39.212  53.349
34571W        W26495  30.249  13.274  50.601
34572W        W26496  22.736  46.190  51.512
34573W        W26497  47.208  42.727  52.885
34574W        W26498  12.764  34.231  53.794
34575W        W26499  23.739  20.257  50.130
34576W        W26500  13.757  10.764  50.161
34577W        W26501  26.712   9.748  51.514
34578W        W26502  37.725  36.216  52.417
34579W        W26503   6.253  41.227  51.063
34580W        W26504  24.218  15.752  49.709
34581W        W26505  39.700  40.221  50.156
34582W        W26506  40.684  22.755  52.859
34583W        W26507  14.730  17.731  50.622
34584W        W26508   4.251  32.716  52.448
34585W        W26509  40.726  26.212  50.591
34586W        W26510  17.741  46.222  52.437
34587W        W26511  42.182   6.271  49.681
34588W        W26512  41.214  30.736  49.709
34589W        W26513  25.734  18.730  49.680
34590W        W26514   3.757  25.717  53.332
34591W        W26515   1.283  44.203  53.797
34592W        W26516  36.214  43.696  52.897
34593W        W26517   8.742   5.773  51.036
34594W        W26518  31.732  38.214  51.037
34595W        W26519   3.744  27.213  50.619
34596W        W26520   1.774   9.770  53.813
34597W        W26521  44.225   4.766  52.424
34598W        W26522  13.776  30.705  53.813
34599W        W26523  16.270   3.283  51.496
34600W        W26524  38.195  40.729  51.060
34601W        W26525  25.236  41.211  51.049
34602W        W26526   2.264  15.267  53.808
34603W        W26527  20.251  16.253  53.361
34604W        W26528   7.268  28.711  51.987
34605W        W26529  42.211  23.748  52.903
34606W        W26530   0.764   7.261  51.534
34607W        W26531  36.696  37.204  50.622
34608W        W26532   6.289  38.699  51.989
34609W        W26533   3.786  27.218  51.982
34610W        W26534  23.243  14.744  51.956
34611W        W26535  22.759  28.245  50.157
34612W        W26536   7.268  35.727  50.593
34613W        W26537   4.746  28.716  52.429
34614W        W26538  30.715  21.232  53.791
34615W        W26539  31.702  18.755  53.809
34616W        W26540  43.208  43.185  50.136
34617W        W26541  43.211  31.735  51.977
34618W        W26542  39.691  19.730  49.670
34619W        W26543  21.747   8.259  50.588
34620W        W26544  29.741  24.255  49.710
34621W        W26545   7.248  12.766  53.810
34622W        W26546  38.191  17.241  51.066
34623W        W26547  37.208  35.217  50.602
34624W        W26548  11.236  25.725  51.977
34625W        W26549  42.211   0.272  53.792
34626W        W26550  45.195  19.225  50.147
34627W        W26551  47.220   2.274  53.343
34628W        W26552  13.242  42.705  50.163
34629W        W26553  33.214  12.743  50.157
34630W        W26554   9.283  17.262  51.042
34631W        W26555  48.199  40.184  51.526
34632W        W26556  33.221  33.223  50.158
34633W        W26557   2.746  42.699  50.154
34634W        W26558  24.240  37.216  51.056
34635W        W26559  36.726  40.686  53.816
34636W        W26560  41.227  34.715  51.070
34637W        W26561  20.738  47.708  51.047
34638W        W26562  22.722   0.270  51.523
34639W        W26563  37.691  38.226  50.578
34640W        W26564  39.191  41.191  51.490
34641W        W26565  25.220   6.750  52.442
34642W        W26566   8.749  43.212  53.784
34643W        W26567  27.238  44.216  53.351
34644W        W26568  32.215  46.212  51.990
34645W        W26569  12.273  41.200  51.493
34646W        W26570  44.201   1.754  52.865
34647W        W26571  23.723  14.744  51.969
34648W        W26572   8.244   9.275  53.808
34649W        W26573  41.723  45.694  49.673
34650W        W26574  16.723  30.706  52.901
34651W        W26575  24.226  14.254  51.058
34652W        W26576  16.241  42.195  49.668
34653W        W26577  17.235   3.747  51.047
34654W        W26578  32.724  10.271  49.678
34655W        W26579  11.242  28.726  50.612
34656W        W26580  44.211  31.736  51.966
34657W        W26581   8.237  28.752  51.963
34658W        W26582  19.744   3.262  50.162
34659W        W26583  32.741  45.676  50.614
34660W        W26584  33.202  20.721  52.876
34661W        W26585   1.290  13.776  51.072
34662W        W26586  20.222  41.196  51.518
34663W        W26587  37.732  46.186  50.619
34664W        W26588  41.210   0.777  51.521
34665W        W26589   0.268  35.737  52.417
34666W        W26590  25.744  26.723  50.153
34667W        W26591  29.702  11.769  51.491
34668W        W26592  10.236  39.727  49.690
34669W        W26593  37.192  25.219  51.056
34670W        W26594  35.224  12.736  50.146
34671W        W26595  26.711  34.218  49.667
34672W        W26596   1.270  37.708  52.866
34673W        W26597  10.740  29.733  51.497
34674W        W26598  12.736  17.259  50.133
34675W        W26599  30.215  16.743  52.900
34676W        W26600  21.224  10.278  51.518
34677W        W26601  29.711  24.733  52.902
34678W        W26602  26.247  27.236  51.531
34679W        W26603  13.741  12.762  50.609
34680W        W26604  22.742  21.729  52.418
34681W        W26605  19.245   9.244  51.055
34682W        W26606  37.703  20.747  52.423
34683W        W26607  47.690  48.186  53.334
34684W        W26608  26.218  18.746  52.431
34685W        W26609  34.706  29.242  52.884
34686W        W26610  24.742  41.211  49.702
34687W        W26611  37.218  17.762  50.606
34688W        W26612  18.766  35.696  51.957
34689W        W26613   9.245  23.223  51.041
34690W        W26614  13.764  22.255  49.696
34691W        W26615   2.766   2.777  53.810
34692W        W26616  42.723   2.274  51.523
34693W        W26617   7.272  19.751  52.434
34694W        W26618  14.260  42.699  51.072
34695W        W26619   5.789  40.220  52.891
34696W        W26620  19.723  12.737  51.983
34697W        W26621  13.247  17.732  52.439
34698W        W26622  41.684   2.780  50.581
34699W        W26623  31.206  36.724  51.963
34700W        W26624  30.213  11.256  50.607
34701W        W26625  18.731  45.702  53.358
34702W        W26626  46.174  33.208  49.696
34703W        W26627  44.706  40.700  49.671
34704W        W26628   1.277  29.705  50.582
34705W        W26629  25.251   5.263  51.518
34706W        W26630   7.241  35.224  50.608
34707W        W26631  24.252   9.778  53.357
34708W        W26632  41.207   2.294  49.708
34709W        W26633  26.209   4.769  52.878
34710W        W26634  23.219  46.711  49.668
34711W        W26635  24.713  39.716  52.874
34712W        W26636  20.259  18.243  50.600
34713W        W26637   9.759  16.231  51.493
34714W        W26638  22.730  30.729  51.971
34715W        W26639  40.208  39.719  51.495
34716W        W26640  36.716   9.766  53.813
34717W        W26641   3.272  21.226  50.150
34718W        W26642  40.201  43.716  49.697
34719W        W26643  15.725  11.733  52.436
34720W        W26644  26.218   2.271  53.792
34721W        W26645  32.727  28.240  50.141
34722W        W26646  17.752  36.690  51.065
34723W        W26647  27.720   2.761  50.585
34724W        W26648  47.211  15.272  50.586
34725W        W26649   8.238  43.183  50.616
34726W        W26650  18.762  36.734  50.158
34727W        W26651  10.256  13.235  52.894
34728W        W26652  44.689  13.767  51.534
34729W        W26653  19.738  25.714  50.136
34730W        W26654  18.721  47.676  49.685
34731W        W26655  26.244  28.742  50.133
34732W        W26656   4.746   8.747  51.072
34733W        W26657   5.760   0.290  51.510
34734W        W26658   5.780  14.245  53.812
34735W        W26659  22.237  15.735  53.787
34736W        W26660  25.228  44.690  51.965
34737W        W26661   6.751  28.737  52.439
34738W        W26662  33.224  18.270  51.047
34739W        W26663  42.188  37.709  53.799
34740W        W26664  47.692  25.248  50.151
34741W        W26665  35.198  37.715  52.415
34742W        W26666  34.225  37.699  52.410
34743W        W26667  13.252  47.213  51.985
34744W        W26668  12.254  33.699  50.615
34745W        W26669  19.733   0.796  53.790
34746W        W26670  36.212  13.242  51.079
34747W        W26671  12.759   4.289  49.689
34748W        W26672  24.247   0.252  53.349
34749W        W26673  31.704  44.227  49.704
34750W        W26674  23.725  18.238  50.123
34751W        W26675  31.221  48.192  49.690
34752W        W26676  30.228  37.718  49.686
34753W        W26677  44.683  10.279  51.971
34754W        W26678  37.215   7.759  50.601
34755W        W26679   1.267  45.685  51.043
34756W        W26680  48.206  45.190  50.586
34757W        W26681  37.703   4.284  51.079
34758W        W26682  10.248   5.768  53.787
34759W        W26683  29.733  39.203  50.599
34760W        W26684  27.217   5.785  50.124
34761W        W26685  26.752   2.749  50.154
34762W        W26686   5.281  47.204  50.141
34763W        W26687  16.237  43.193  53.780
34764W        W26688  27.732  20.740  49.692
34765W        W26689  12.279   1.292  53.360
34766W        W26690  30.217  33.705  49.697
34767W        W26691  41.213  20.220  53.811
34768W        W26692  21.263  20.250  52.893
34769W        W26693   0.290  11.776  51.065
34770W        W26694   9.743  16.740  49.672
34771W        W26695  17.236  43.725  51.051
34772W        W26696  20.765  37.213  50.579
34773W        W26697  44.221  45.202  52.871
34774W        W26698  21.763   7.240  53.800
34775W        W26699  42.192  19.250  52.886
34776W        W26700  17.726  43.691  51.058
34777W        W26701  10.269  42.204  51.062
34778W        W26702  19.265  18.220  50.145
34779W        W26703  42.690  13.263  50.595
34780W        W26704  15.255  48.197  51.036
34781W        W26705   2.261  37.706  50.586
34782W        W26706  12.757  15.738  51.974
34783W        W26707  30.213  24.711  52.884
34784W        W26708  43.198  14.745  50.619
34785W        W26709  27.222   4.267  50.587
34786W        W26710  25.734  32.740  53.817
34787W        W26711  34.202  21.247  51.513
34788W        W26712   2.276  16.241  53.327
34789W        W26713  35.722  47.718  49.693
34790W        W26714   9.742  13.752  51.962
34791W        W26715   7.767  26.745  52.411
34792W        W26716  29.717  19.761  49.689
34793W        W26717  40.690  42.717  51.527
34794W        W26718  45.691   5.763  51.049
34795W        W26719  25.226  22.250  49.687
34796W        W26720  34.715  39.733  52.403
34797W        W26721  18.741   7.266  52.874
34798W        W26722  25.221   3.794  51.065
34799W        W26723   3.764  30.706  53.803
34800W        W26724  35.238  20.721  49.683
34801W        W26725  36.224   4.758  50.610
34802W        W26726  17.761  46.181  50.135
34803W        W26727   3.762  47.205  49.676
34804W        W26728  11.757  20.727  51.958
34805W        W26729  15.763  13.730  52.872
34806W        W26730  44.706   5.756  50.593
34807W        W26731  46.688  22.759  52.895
34808W        W26732  13.766  31.740  52.416
34809W        W26733   6.748  19.729  53.800
34810W        W26734  42.214  40.188  50.612
34811W        W26735  23.235  38.212  51.971
34812W        W26736  16.227  25.218  53.792
34813W        W26737   3.280  33.224  51.983
34814W        W26738  15.769  32.698  51.045
34815W        W26739  36.237  37.234  53.358
34816W        W26740  16.262  23.223  52.872
34817W        W26741  24.218   3.784  50.133
34818W        W26742  32.199  41.713  51.985
34819W        W26743   4.789  43.713  52.414
34820W        W26744  44.720  14.775  49.685
34821W        W26745  45.206  16.763  50.142
34822W        W26746  17.768  22.218  49.697
34823W        W26747  28.224  11.240  50.620
34824W        W26748  40.229  41.188  50.605
34825W        W26749  42.184  41.196  52.869
34826W        W26750  26.246  23.222  52.441
34827W        W26751  19.266  12.237  51.497
34828W        W26752  13.760  27.707  52.886
34829W        W26753  16.764  16.767  52.875
34830W        W26754  34.720  47.690  49.702
34831W        W26755   9.276  19.255  51.969
34832W        W26756  30.232  28.250  53.343
34833W        W26757  16.224  48.192  50.162
34834W        W26758  38.202  37.710  53.339
34835W        W26759  15.228  42.721  52.895
34836W        W26760  18.721   6.770  53.814
34837W        W26761  12.259  20.730  51.066
34838W        W26762   3.745  43.725  50.161
34839W        W26763  38.198  28.218  52.420
34840W        W26764   6.241  38.698  53.329
34841W        W26765  16.238  13.736  51.527
34842W        W26766  32.242  19.244  51.079
34843W        W26767  35.738  25.225  53.356
34844W        W26768  39.188   5.789  52.439
34845W        W26769  17.757  13.268  50.578
34846W        W26770  48.186   0.758  51.519
34847W        W26771  23.750   3.784  50.151
34848W        W26772  22.730   6.281  52.430
34849W        W26773  15.736  38.198  53.814
34850W        W26774  38.210  28.744  51.074
34851W        W26775  42.711  45.217  50.152
34852W        W26776  18.730  46.682  51.951
34853W        W26777  15.759  36.192  53.344
34854W        W26778  24.243  12.252  49.673
34855W        W26779  19.723  25.746  53.798
34856W        W26780  45.724  33.724  50.162
34857W        W26781  34.698   1.261  50.581
34858W        W26782  10.265  11.766  52.878
34859W        W26783  11.755   0.751  50.133
34860W        W26784  33.222  41.708  53.810
34861W        W26785   1.754  41.717  53.349
34862W        W26786  10.267  13.756  49.686
34863W        W26787  41.200   5.275  51.980
34864W        W26788   6.777  43.712  50.585
34865W        W26789  39.725  35.729  52.420
34866W        W26790  46.677  34.234  53.788
34867W        W26791  16.256  23.261  52.417
34868W        W26792  10.253  38.692  50.144
34869W        W26793   1.788  34.709  53.800
34870W        W26794  19.723  31.227  53.317
34871W        W26795  15.756  41.727  51.049
34872W        W26796  31.227  47.690  50.145
34873W        W26797   7.265  16.763  53.316
34874W        W26798  18.231   7.758  52.902
34875W        W26799   9.757  41.208  53.341
34876W        W26800  22.228  19.223  53.343
34877W        W26801  20.250  25.216  51.514
34878W        W26802  23.729  23.743  51.533
34879W        W26803   8.260   7.241  50.587
34880W        W26804  38.234  29.233  52.891
34881W        W26805  41.227  39.716  52.436
34882W        W26806  21.217   2.283  51.515
34883W        W26807  43.215   6.256  52.444
34884W        W26808  37.223   4.256  52.448
34885W        W26809  15.266   5.753  52.432
34886W        W26810   2.771  44.197  53.776
34887W        W26811  15.230  41.214  49.666
34888W        W26812  32.713  16.250  53.783
34889W        W26813  19.264   5.784  51.501
34890W        W26814  25.212  30.702  52.432
34891W        W26815  14.236  35.201  53.354
34892W        W26816  33.218  46.201  53.789
34893W        W26817   1.786  10.267  51.067
34894W        W26818  46.211  41.718  51.966
34895W        W26819  18.748  29.232  51.518
34896W        W26820   5.752  46.704  50.577
34897W        W26821  16.736   8.271  53.783
34898W        W26822  45.211  44.704  50.148
34899W        W26823  14.248  28.222  51.079
34900W        W26824   1.748  17.738  51.955
34901W        W26825   1.794  15.268  50.595
34902W        W26826  19.264   4.282  53.342
34903W        W26827  36.723  34.239  51.529
34904W        W26828   7.273   1.761  53.791
34905W        W26829  31.215  35.235  53.350
34906W        W26830  27.733  17.230  51.981
34907W        W26831  27.725  40.191  51.049
34908W        W26832  14.252  14.238  51.951
34909W        W26833  42.227  10.774  51.522
34910W        W26834   4.784  21.245  52.434
34911W        W26835  26.229  29.743  51.521
34912W        W26836  30.246  14.258  51.954
34913W        W26837  33.236  16.727  51.965
34914W        W26838  41.221  13.236  49.684
34915W        W26839  24.216  26.718  51.973
34916W        W26840  10.742  40.209  51.056
34917W        W26841  26.218  28.229  50.142
34918W        W26842  29.744  23.215  50.592
34919W        W26843  13.247   0.789  51.507
34920W        W26844  12.242  35.203  51.968
34921W        W26845  40.693  33.724  51.979
34922W        W26846  19.261  20.233  53.331
34923W        W26847   7.758  15.244  51.077
34924W        W26848  34.731  33.241  53.340
34925W        W26849  28.207  46.691  49.703
34926W        W26850   1.249  47.716  51.504
34927W        W26851   2.275  41.728  50.160
34928W        W26852  10.763   1.777  53.352
34929W        W26853  22.761  38.687  52.430
34930W        W26854  42.705  48.184  50.129
34931W        W26855  27.711   5.746  49.706
34932W        W26856  22.753  40.689  49.691
34933W        W26857  24.235   9.763  52.410
34934W        W26858  47.711  26.710  53.330
34935W        W26859  19.229  31.241  51.959
34936W        W26860   4.267  41.191  51.529
34937W        W26861  21.236  33.231  51.075
34938W        W26862  41.188  39.213  53.317
34939W        W26863  16.729   1.772  52.867
34940W        W26864  27.246  38.735  51.507
34941W        W26865   6.258  44.697  49.686
34942W        W26866  30.212  18.269  51.985
34943W        W26867  30.216   4.284  50.590
34944W        W26868  42.711  46.692  51.499
34945W        W26869  19.247  31.202  53.789
34946W        W26870  28.250  30.724  52.413
34947W        W26871  14.232  20.265  53.800
34948W        W26872  20.765  32.705  49.704
34949W        W26873   9.745  30.735  50.591
34950W        W26874  43.702  27.740  53.783
34951W        W26875  16.266  45.695  51.509
34952W        W26876  38.724  39.202  53.348
34953W        W26877  33.235  27.713  50.607
34954W        W26878  48.207   0.279  52.436
34955W        W26879   3.252  26.751  50.135
34956W        W26880   7.756  14.729  52.870
34957W        W26881  36.240  19.732  51.976
34958W        W26882  16.256  46.218  52.439
34959W        W26883  24.227  35.710  52.447
34960W        W26884   7.742  29.224  53.805
34961W        W26885  42.711  44.708  53.810
34962W        W26886  10.266  38.729  49.680
34963W        W26887  28.217   1.751  52.446
34964W        W26888   6.781   2.275  53.812
34965W        W26889  17.265  38.728  51.061
34966W        W26890  25.257  41.684  49.685
34967W        W26891  44.704  22.256  51.502
34968W        W26892  34.217  22.214  50.166
34969W        W26893  31.239  45.683  50.153
34970W        W26894  28.732  26.741  53.324
34971W        W26895   8.782   8.775  53.791
34972W        W26896   3.279  31.229  53.342
34973W        W26897   5.785  27.734  50.141
34974W        W26898  22.258  26.245  49.679
34975W        W26899  38.704  17.254  51.037
34976W        W26900  38.734   1.288  50.582
34977W        W26901  38.197  34.216  50.166
34978W        W26902  29.736  48.215  53.331
34979W        W26903  34.741  37.727  49.690
34980W        W26904  33.217  22.747  51.967
34981W        W26905  33.717   0.274  53.337
34982W        W26906  10.754  27.206  50.600
34983W        W26907  38.705  12.729  53.805
34984W        W26908   1.256  23.713  51.040
34985W        W26909  20.230  35.737  51.501
34986W        W26910   6.258  15.228  49.696
34987W        W26911  24.713  18.753  50.133
34988W        W26912  37.724  16.252  51.070
34989W        W26913  18.230   2.282  52.901
34990W        W26914  36.690  28.733  50.155
34991W        W26915  20.251  36.208  50.589
34992W        W26916   6.788  27.744  52.408
34993W        W26917  14.258  35.238  50.623
34994W        W26918  47.679   2.255  52.889
34995W        W26919  41.185  15.754  50.162
34996W        W26920  35.741  18.234  52.861
34997W        W26921  32.219   7.744  51.500
34998W        W26922  20.721   7.753  53.350
34999W        W26923  29.245   9.273  51.983
35000W        W26924  46.216  45.696  53.321
35001W        W26925   5.763  17.759  52.430
35002W        W26926   8.750  34.729  51.514
35003W        W26927  43.190  24.725  53.316
35004W        W26928  20.762  31.710  50.606
35005W        W26929  47.193   7.258  51.044
35006W        W26930   8.243  35.207  51.526
35007W        W26931  40.698  26.748  53.813
35008W        W26932  14.736  21.731  53.803
35009W        W26933  11.775  43.692  52.901
35010W        W26934  21.746  22.741  51.948
35011W        W26935  41.228  15.752  53.317
35012W        W26936  12.747  16.769  50.133
35013W        W26937  42.711   8.271  52.442
35014W        W26938  12.741  32.721  51.513
35015W        W26939  20.720  22.737  51.983
35016W        W26940  30.237  36.205  51.984
35017W        W26941   6.259  27.732  53.356
35018W        W26942  31.701  36.236  51.065
35019W        W26943  45.686  46.177  52.440
35020W        W26944  12.756  10.261  52.866
35021W        W26945   2.778   0.258  50.611
35022W        W26946  35.726  35.232  52.865
35023W        W26947  29.750  30.220  52.903
35024W        W26948  27.231  44.199  51.063
35025W        W26949  23.221  43.183  51.073
35026W        W26950  43.188  28.211  52.873
35027W        W26951  44.676  14.267  50.616
35028W        W26952  21.251  39.211  50.598
35029W        W26953  15.247   8.262  53.337
35030W        W26954  23.748  47.694  50.134
35031W        W26955  37.191  45.713  53.326
35032W        W26956  12.255  42.193  51.970
35033W        W26957  28.209   5.760  53.780
35034W        W26958  15.738  22.231  52.442
35035W        W26959  26.225  48.199  51.517
35036W        W26960  44.177  16.224  51.057
35037W        W26961  14.762  34.705  52.877
35038W        W26962  29.717  41.219  52.420
35039W        W26963  10.279  42.692  51.966
35040W        W26964  11.246   3.279  49.679
35041W        W26965  45.714  30.714  49.687
35042W        W26966  26.219   1.770  51.060
35043W        W26967  19.264  18.756  51.069
35044W        W26968  35.710  40.713  53.787
35045W        W26969  16.235  11.276  53.357
35046W        W26970   9.754   9.267  51.974
35047W        W26971   0.780  43.707  52.420
35048W        W26972   3.773   7.766  51.992
35049W        W26973  38.703   1.259  52.864
35050W        W26974  41.704  28.750  52.903
35051W        W26975  46.683   1.258  51.499
35052W        W26976  30.248  45.194  53.319
35053W        W26977  10.735   8.762  50.577
35054W        W26978  33.713  10.265  51.979
35055W        W26979  34.695  21.227  50.152
35056W        W26980  10.263  23.231  53.786
35057W        W26981  41.710  37.719  53.786
35058W        W26982  27.738  25.251  50.139
35059W        W26983  13.751  34.195  50.148
35060W        W26984  28.245  16.735  50.123
35061W        W26985  27.731   7.275  51.987
35062W        W26986  26.215  45.213  49.670
35063W        W26987  31.201   8.286  49.703
35064W        W26988  45.208  14.738  51.047
35065W        W26989  21.743  40.221  51.037
35066W        W26990  45.718  13.731  52.440
35067W        W26991   9.248  19.759  53.330
35068W        W26992  47.684   9.740  51.953
35069W        W26993  46.176  29.219  51.526
35070W        W26994  42.185  28.244  49.704
35071W        W26995  41.201   2.784  51.509
35072W        W26996  43.698   6.754  50.618
35073W        W26997  34.240  23.736  52.865
35074W        W26998  31.213  41.726  53.351
35075W        W26999  13.268   6.283  53.786
35076W        W27000  45.682  37.724  53.322
35077W        W27001  34.711  19.235  52.871
35078W        W27002  27.718   3.257  52.443
35079W        W27003  17.225  35.213  53.357
35080W        W27004  38.222  47.680  52.404
35081W        W27005   6.753  20.217  50.142
35082W        W27006   5.281  27.214  52.435
35083W        W27007  15.248   4.787  50.586
35084W        W27008  36.201  32.217  50.157
35085W        W27009  37.723   6.266  53.782
35086W        W27010  29.250  26.208  51.982
35087W        W27011   7.284   3.273  49.679
35088W        W27012  46.185  16.260  49.680
35089W        W27013  20.264  36.698  52.404
35090W        W27014  23.722  10.763  51.053
35091W        W27015  30.246  45.195  49.666
35092W        W27016   8.258  38.189  53.350
35093W        W27017  33.205  16.755  53.793
35094W        W27018  10.261  32.722  53.773
35095W        W27019   6.765  17.257  52.417
35096W        W27020  12.261  44.193  53.783
35097W        W27021  45.697  25.214  50.601
35098W        W27022   1.293  35.712  50.604
35099W        W27023   5.247  12.248  50.144
35100W        W27024   5.760  17.257  51.072
35101W        W27025   5.266  10.253  52.904
35102W        W27026  27.707  38.203  53.328
35103W        W27027  17.770  27.253  49.681
35104W        W27028   0.789  42.229  51.952
35105W        W27029  31.712  22.756  53.800
35106W        W27030   4.783  17.223  51.984
35107W        W27031  28.252  27.242  50.593
35108W        W27032  40.695  43.712  53.339
35109W        W27033  39.701  46.210  51.971
35110W        W27034  39.694  19.760  52.434
35111W        W27035   5.754  27.705  49.688
35112W        W27036  46.688  15.229  51.533
35113W        W27037  21.730  23.729  50.611
35114W        W27038  38.696   1.763  53.774
35115W        W27039  46.678  21.259  51.069
35116W        W27040  15.767   5.783  50.121
35117W        W27041  29.230  19.238  50.163
35118W        W27042  15.763  40.228  52.434
35119W        W27043  41.731   8.769  52.416
35120W        W27044  33.720  23.246  52.865
35121W        W27045  35.223  42.210  50.140
35122W        W27046   1.250   8.736  53.773
35123W        W27047   6.270  38.217  52.872
35124W        W27048  32.720  11.260  51.535
35125W        W27049  41.200  37.200  51.527
35126W        W27050  30.234  25.719  52.879
35127W        W27051  38.189   5.742  51.510
35128W        W27052  13.251  34.742  51.515
35129W        W27053  22.730   6.741  53.794
35130W        W27054  10.238  15.752  49.707
35131W        W27055   4.280   1.750  53.779
35132W        W27056  16.263  11.770  52.883
35133W        W27057  35.211  24.731  53.350
35134W        W27058  40.208  40.212  52.876
35135W        W27059  26.730   2.267  53.782
35136W        W27060   2.753  19.260  50.614
35137W        W27061  16.761  24.259  52.871
35138W        W27062  15.728  27.727  53.805
35139W        W27063  43.688   6.284  51.502
35140W        W27064  37.195  33.242  51.496
35141W        W27065  12.252  46.699  53.774
35142W        W27066  25.722  43.192  53.792
35143W        W27067  40.687   9.277  50.584
35144W        W27068  13.763   3.772  52.860
35145W        W27069  37.692   4.262  51.526
35146W        W27070  29.718  42.693  49.695
35147W        W27071   0.254  10.267  50.166
35148W        W27072  17.739  28.712  53.802
35149W        W27073   9.737   5.257  50.622
35150W        W27074  35.732  36.227  51.966
35151W        W27075  15.729  15.266  51.069
35152W        W27076  25.744  14.733  52.415
35153W        W27077   6.774  39.191  53.360
35154W        W27078  19.241  41.696  50.156
35155W        W27079  31.721   2.763  51.976
35156W        W27080  15.773  22.252  51.962
35157W        W27081  45.719  18.729  52.443
35158W        W27082  39.227   1.776  50.163
35159W        W27083   1.788  44.704  52.424
35160W        W27084  45.184  32.226  51.037
35161W        W27085  18.741  37.238  52.897
35162W        W27086   3.286  19.760  52.864
35163W        W27087  17.244  14.258  50.616
35164W        W27088   8.741  28.229  49.694
35165W        W27089  42.712  43.694  49.688
35166W        W27090  39.188  47.702  52.892
35167W        W27091  36.722  27.227  49.691
35168W        W27092  37.724  25.228  49.678
35169W        W27093  46.713  38.715  49.693
35170W        W27094  24.749  46.195  52.897
35171W        W27095  12.274  34.239  51.077
35172W        W27096  30.706  36.696  51.527
35173W        W27097  45.716  15.256  51.077
35174W        W27098  26.225  44.221  50.138
35175W        W27099   2.758  16.267  51.970
35176W        W27100  10.754  47.172  53.806
35177W        W27101  33.707  38.713  50.150
35178W        W27102   3.762  48.192  52.437
35179W        W27103  18.252  16.734  51.509
35180W        W27104  44.703   7.765  50.140
35181W        W27105  35.212  30.735  52.872
35182W        W27106  24.743   4.745  49.702
35183W        W27107  22.742  29.242  51.534
35184W        W27108  32.220  40.696  51.510
35185W        W27109  10.244   1.272  51.063
35186W        W27110  11.278  30.700  51.047
35187W        W27111   2.766  34.226  53.798
35188W        W27112  40.194  40.216  51.492
35189W        W27113  34.715   0.262  51.075
35190W        W27114  24.217  23.719  53.793
35191W        W27115  16.270  39.704  52.891
35192W        W27116  41.199  39.708  49.678
35193W        W27117  37.694  18.751  52.415
35194W        W27118   3.755  13.229  51.068
35195W        W27119   5.762  32.225  51.501
35196W        W27120   8.778  38.719  51.974
35197W        W27121  10.247  46.222  50.603
35198W        W27122  13.775  15.742  52.903
35199W        W27123  43.703  15.768  52.405
35200W        W27124   2.750  16.735  50.154
35201W        W27125   2.278  38.212  53.800
35202W        W27126  24.720  43.706  53.776
35203W        W27127   2.289  10.776  52.404
35204W        W27128  35.217   0.780  51.045
35205W        W27129  25.714   6.784  52.864
35206W        W27130  38.725  35.696  52.434
35207W        W27131  15.274  21.263  53.355
35208W        W27132  29.246  31.240  52.877
35209W        W27133  18.759  17.733  52.429
35210W        W27134  44.216   2.278  51.035
35211W        W27135  29.217  10.764  50.138
35212W        W27136  28.235  19.233  52.903
35213W        W27137  12.239  13.243  51.501
35214W        W27138  45.205  10.240  51.066
35215W        W27139  21.233  21.224  53.320
35216W        W27140   5.777  24.224  49.688
35217W        W27141  46.187  38.236  51.505
35218W        W27142  26.254  34.226  49.679
35219W        W27143  33.707  15.748  52.432
35220W        W27144  40.196  34.705  53.351
35221W        W27145  32.706  26.709  52.411
35222W        W27146  30.745  25.717  50.137
35223W        W27147  45.190  35.696  52.446
35224W        W27148  47.180  18.223  52.426
35225W        W27149   2.255  19.245  53.783
35226W        W27150  14.240  11.775  51.957
35227W        W27151  12.257  28.250  51.530
35228W        W27152  47.712  12.746  50.605
35229W        W27153  35.740   7.271  50.598
35230W        W27154  20.758  44.210  50.597
35231W        W27155  16.264   8.283  51.058
35232W        W27156  34.232  33.715  53.815
35233W        W27157  28.227   5.253  53.321
35234W        W27158   0.762   2.766  52.887
35235W        W27159  45.221   3.780  50.142
35236W        W27160   8.238  23.240  53.350
35237W        W27161   4.258  34.219  51.514
35238W        W27162  38.190  13.731  50.611
35239W        W27163  32.719  38.689  50.134
35240W        W27164  25.242  40.191  52.894
35241W        W27165  20.230   9.736  52.865
35242W        W27166  44.720  38.194  50.136
35243W        W27167  43.719  38.734  51.528
35244W        W27168  25.218  29.216  53.804
35245W        W27169  40.202  27.707  53.346
35246W        W27170  15.733  11.258  50.145
35247W        W27171  15.271  10.265  51.526
35248W        W27172  33.737  11.276  50.618
35249W        W27173  15.726  37.195  51.953
35250W        W27174  21.718   9.734  50.137
35251W        W27175  28.221  35.219  53.358
35252W        W27176  32.716  40.210  52.892
35253W        W27177  28.744  28.236  50.599
35254W        W27178  35.208  17.239  50.622
35255W        W27179  11.270  31.221  51.988
35256W        W27180  12.753  11.761  49.682
35257W        W27181   9.258  35.738  50.607
35258W        W27182   2.261  16.256  51.068
35259W        W27183  24.244  38.189  51.056
35260W        W27184  27.222  25.235  51.982
35261W        W27185  39.221   1.764  52.443
35262W        W27186  30.719  12.741  51.968
35263W        W27187   4.786  17.236  52.887
35264W        W27188  10.268  26.237  52.876
35265W        W27189  18.231  27.247  53.326
35266W        W27190  16.268   9.284  52.886
35267W        W27191   5.257  32.727  52.898
35268W        W27192  41.219   8.756  51.073
35269W        W27193   6.287  45.194  52.416
35270W        W27194  15.240  15.761  49.703
35271W        W27195  45.710   0.753  51.067
35272W        W27196  43.678  13.256  53.797
35273W        W27197  23.252  28.726  51.039
35274W        W27198  28.238   5.752  51.509
35275W        W27199  32.217  30.247  51.956
35276W        W27200  13.239  37.721  51.977
35277W        W27201   3.758  27.748  51.037
35278W        W27202   9.771   8.764  51.510
35279W        W27203   0.264  33.697  53.798
35280W        W27204  13.747  11.256  52.409
35281W        W27205  22.258  35.222  51.510
35282W        W27206   0.271   2.284  50.162
35283W        W27207  40.684  18.743  53.780
35284W        W27208  45.211  42.698  51.983
35285W        W27209   6.770   7.760  51.494
35286W        W27210  22.215   9.280  50.603
35287W        W27211  24.735  23.215  53.802
35288W        W27212   5.765  31.704  50.617
35289W        W27213  28.703  27.730  51.949
35290W        W27214  45.178   5.770  51.949
35291W        W27215  36.693  16.750  50.128
35292W        W27216  41.201   3.755  53.800
35293W        W27217  48.214   8.752  53.794
35294W        W27218  42.223   2.780  52.431
35295W        W27219  20.233  14.752  53.343
35296W        W27220  43.216  46.215  51.054
35297W        W27221   4.244  12.248  53.792
35298W        W27222   1.282  41.700  51.513
35299W        W27223  16.761  47.696  52.429
35300W        W27224  18.739  45.678  50.159
35301W        W27225  21.264  30.718  52.441
35302W        W27226  39.195  46.202  53.811
35303W        W27227  17.244  46.202  51.520
35304W        W27228  17.229  24.748  50.166
35305W        W27229  40.707  40.198  50.600
35306W        W27230  32.724  31.722  51.984
35307W        W27231  14.763  38.217  53.348
35308W        W27232  40.193   9.769  51.506
35309W        W27233  20.250  17.763  51.963
35310W        W27234  27.719  27.228  51.980
35311W        W27235   9.766   4.791  50.613
35312W        W27236  14.230  25.744  53.776
35313W        W27237  11.736  17.261  53.339
35314W        W27238  40.717  30.206  52.406
35315W        W27239   5.253  28.720  51.968
35316W        W27240   2.768  36.227  52.880
35317W        W27241  17.262  46.675  52.406
35318W        W27242  38.236   6.275  51.509
35319W        W27243   9.762  42.185  51.527
35320W        W27244  14.250  27.241  50.581
35321W        W27245  42.200   6.755  52.889
35322W        W27246  43.195  15.735  53.343
35323W        W27247  27.724  21.254  51.075
35324W        W27248   2.278   5.775  49.710
35325W        W27249   9.258   4.780  52.880
35326W        W27250  19.736  20.725  51.983
35327W        W27251  17.740  24.235  50.582
35328W        W27252  19.745   2.793  51.049
35329W        W27253  27.727  42.185  50.577
35330W        W27254  31.209  26.227  53.325
35331W        W27255  40.688  16.723  51.527
35332W        W27256  36.203  27.751  50.125
35333W        W27257  48.180  22.256  51.072
35334W        W27258  43.712   1.767  49.681
35335W        W27259   3.271  17.723  52.895
35336W        W27260  17.771   2.761  53.329
35337W        W27261   4.293  17.728  49.696
35338W        W27262  28.726   1.277  53.789
35339W        W27263  13.738  15.272  50.621
35340W        W27264  20.734  40.233  53.816
35341W        W27265  13.761  31.218  50.594
35342W        W27266  12.276   0.756  50.588
35343W        W27267  46.711  19.255  53.782
35344W        W27268   0.299  31.247  52.412
35345W        W27269  10.243   4.249  50.126
35346W        W27270  38.690  42.707  51.071
35347W        W27271  33.230  40.233  52.860
35348W        W27272  38.704  44.688  53.812
35349W        W27273  43.716  42.720  52.883
35350W        W27274  19.720  41.692  51.062
35351W        W27275  19.757  14.759  50.601
35352W        W27276  46.691  48.171  50.616
35353W        W27277   6.746   8.261  51.958
35354W        W27278  33.739  25.731  49.670
35355W        W27279  10.758  15.762  50.607
35356W        W27280  48.182  13.734  49.670
35357W        W27281  16.727  31.206  51.966
35358W        W27282  28.717  16.256  49.683
35359W        W27283  19.722  37.729  50.132
35360W        W27284  44.194   4.755  51.966
35361W        W27285  17.258  46.213  51.986
35362W        W27286  31.204  47.678  52.893
35363W        W27287  22.231  34.214  50.617
35364W        W27288  14.757  39.700  50.618
35365W        W27289   4.766   1.780  52.873
35366W        W27290  29.241  32.712  50.139
35367W        W27291  18.260  11.748  51.047
35368W        W27292  15.730   4.743  52.903
35369W        W27293  39.221  34.708  50.133
35370W        W27294  40.688  46.680  52.444
35371W        W27295  15.772  15.244  52.900
35372W        W27296  39.693  34.209  53.794
35373W        W27297   9.741   5.744  51.976
35374W        W27298  24.747  25.712  53.332
35375W        W27299  22.257  23.756  53.318
35376W        W27300   1.282  26.248  53.793
35377W        W27301  15.225  35.200  51.973
35378W        W27302  20.239  13.267  52.430
35379W        W27303  30.210  43.693  50.605
35380W        W27304   1.792  16.763  52.884
35381W        W27305  48.186  17.238  52.425
35382W        W27306  34.202   5.246  53.327
35383W        W27307   9.734  10.273  53.318
35384W        W27308  27.217  23.237  50.135
35385W        W27309  33.708  10.750  49.677
35386W        W27310  13.755  18.232  51.067
35387W        W27311  15.262   2.752  53.799
35388W        W27312  29.749  28.728  50.148
35389W        W27313   7.286   5.266  51.503
35390W        W27314  10.281   0.765  49.686
35391W        W27315  16.227  39.711  50.155
35392W        W27316  35.736  14.729  51.528
35393W        W27317  41.209  33.220  51.072
35394W        W27318  12.748   7.741  50.599
35395W        W27319  39.190   4.772  53.339
35396W        W27320   0.772  36.709  50.603
35397W        W27321  25.709   8.783  52.433
35398W        W27322  41.714  39.725  53.357
35399W        W27323  20.754  31.732  51.953
35400W        W27324  32.207  20.230  52.438
35401W        W27325  39.718   2.767  52.407
35402W        W27326  35.710  19.738  52.443
35403W        W27327  45.715  42.212  52.886
35404W        W27328  33.228   8.277  50.590
35405W        W27329   5.246  39.727  50.145
35406W        W27330  25.224  42.727  51.521
35407W        W27331  31.718  23.719  53.777
35408W        W27332  38.234  38.221  49.688
35409W        W27333  22.730  32.716  52.437
35410W        W27334  39.695  11.737  52.404
35411W        W27335  26.716  24.754  50.578
35412W        W27336  37.214  27.239  51.525
35413W        W27337  11.744  18.242  53.324
35414W        W27338  47.188  19.754  50.146
35415W        W27339  38.715  11.733  52.898
35416W        W27340  46.720  48.210  51.076
35417W        W27341   0.788  26.713  52.411
35418W        W27342   6.244  21.732  52.416
35419W        W27343   5.270  39.202  51.506
35420W        W27344   2.287  32.199  51.506
35421W        W27345  31.234  16.257  53.798
35422W        W27346  30.214   0.750  50.583
35423W        W27347   9.241   3.773  51.071
35424W        W27348   3.261   9.763  53.333
35425W        W27349  21.222   8.257  49.666
35426W        W27350  17.763  41.717  50.577
35427W        W27351   1.256  48.177  53.354
35428W        W27352  39.726  47.209  53.772
35429W        W27353  19.741  32.740  53.817
35430W        W27354  30.219   2.250  52.435
35431W        W27355  46.675  43.719  49.695
35432W        W27356   2.782  21.722  52.902
35433W        W27357  36.707  21.742  51.970
35434W        W27358  20.237  28.708  50.148
35435W        W27359  36.210   3.765  51.532
35436W        W27360  45.709  24.227  53.793
35437W        W27361  44.694  10.760  53.320
35438W        W27362  24.748  43.196  51.985
35439W        W27363  18.256   2.277  51.518
35440W        W27364  33.241  42.218  49.684
35441W        W27365   5.780  17.222  51.953
35442W        W27366  36.698  15.235  50.580
35443W        W27367  27.753  46.179  49.694
35444W        W27368  18.266  20.262  52.416
35445W        W27369  31.746   4.271  51.956
35446W        W27370  33.740  34.214  52.863
35447W        W27371  19.254  16.722  49.707
35448W        W27372  47.208  35.216  50.614
35449W        W27373   7.749  46.691  53.323
35450W        W27374  44.200  24.248  49.683
35451W        W27375  21.723  10.261  51.508
35452W        W27376  18.728  44.223  51.974
35453W        W27377  15.255   2.255  51.949
35454W        W27378  37.216  37.736  51.531
35455W        W27379  23.711  30.234  53.338
35456W        W27380  44.712  35.727  53.317
35457W        W27381  11.748  39.210  53.781
35458W        W27382  23.726  37.216  49.690
35459W        W27383  14.261  20.243  53.331
35460W        W27384  26.245  46.678  50.585
35461W        W27385  45.681   1.759  49.685
35462W        W27386  41.186  44.716  51.504
35463W        W27387  24.754  34.703  53.331
35464W        W27388   9.282  27.229  52.887
35465W        W27389   9.751  19.724  50.151
35466W        W27390  35.199   2.775  50.137
35467W        W27391  42.706  28.214  49.666
35468W        W27392  14.773  10.282  51.506
35469W        W27393   1.779  42.706  49.699
35470W        W27394  17.727  39.234  51.078
35471W        W27395  11.259   4.772  51.511
35472W        W27396  12.750  24.726  50.593
35473W        W27397   5.263   7.774  51.947
35474W        W27398   1.286  29.701  49.701
35475W        W27399  22.238   9.782  52.444
35476W        W27400  23.235  43.227  51.968
35477W        W27401  23.231   5.775  50.124
35478W        W27402  46.703  36.716  52.879
35479W        W27403   9.243   8.774  52.425
35480W        W27404  10.757  45.717  52.439
35481W        W27405   6.279  15.233  52.403
35482W        W27406  44.201  17.767  52.861
35483W        W27407  15.248  15.772  52.903
35484W        W27408  15.750  14.251  52.446
35485W        W27409  20.723  22.263  51.079
35486W        W27410  22.257  26.718  50.142
35487W        W27411  22.221  47.220  51.965
35488W        W27412  18.753  38.706  52.898
35489W        W27413  42.726  44.694  51.065
35490W        W27414   7.280  25.209  51.985
35491W        W27415   3.784  33.244  50.165
35492W        W27416  20.721  17.240  49.682
35493W        W27417  18.739  10.744  53.337
35494W        W27418  47.205  22.737  51.950
35495W        W27419  17.758  32.209  53.338
35496W        W27420  27.210  20.263  50.155
35497W        W27421  26.706  32.705  52.859
35498W        W27422  32.243  31.238  49.677
35499W        W27423  38.726  21.235  53.800
35500W        W27424   7.770  29.231  50.132
35501W        W27425  16.724  36.228  52.448
35502W        W27426  44.691  36.217  50.154
35503W        W27427  35.692  33.198  50.608
35504W        W27428  39.205  25.238  52.868
35505W        W27429  23.761   1.272  50.126
35506W        W27430   3.246  28.223  53.774
35507W        W27431  15.740  22.255  52.865
35508W        W27432  42.724   2.249  49.707
35509W        W27433  30.218   7.255  49.666
35510W        W27434  29.218  29.237  52.891
35511W        W27435  11.236   0.253  53.785
35512W        W27436  28.221   1.276  51.960
35513W        W27437  10.742  39.193  50.162
35514W        W27438  19.245  15.260  49.706
35515W        W27439  14.260  19.228  53.349
35516W        W27440  47.178   7.761  50.159
35517W        W27441  14.750  36.215  51.067
35518W        W27442   4.763  26.711  50.145
35519W        W27443   7.261  18.759  50.127
35520W        W27444   3.249  32.698  49.684
35521W        W27445   7.754  45.706  50.606
35522W        W27446  40.720  11.764  51.510
35523W        W27447  47.720   9.237  52.894
35524W        W27448  47.671   9.775  50.601
35525W        W27449  26.229  48.206  52.879
35526W        W27450  31.713  30.246  52.410
35527W        W27451  38.705  38.204  52.416
35528W        W27452  10.243  23.730  50.138
35529W        W27453  34.735  11.781  51.523
35530W        W27454  28.728  30.722  53.798
35531W        W27455  44.206   3.765  49.704
35532W        W27456  35.708  24.222  50.152
35533W        W27457  32.215   9.238  53.348
35534W        W27458  40.692  28.204  52.868
35535W        W27459  45.217  33.737  52.896
35536W        W27460  10.240   2.752  53.781
35537W        W27461  26.218   0.282  53.340
35538W        W27462  34.710  43.715  50.601
35539W        W27463  36.702  36.727  51.534
35540W        W27464  34.208  21.263  53.795
35541W        W27465  25.754   0.783  53.356
35542W        W27466  39.727  21.728  49.671
35543W        W27467  41.710  12.766  52.874
35544W        W27468  10.265  18.232  53.352
35545W        W27469   8.778  37.720  52.882
35546W        W27470  26.736   7.752  51.956
35547W        W27471   3.260  19.263  51.073
35548W        W27472  26.208  25.719  49.669
35549W        W27473  30.212  10.755  52.420
35550W        W27474  13.752  47.677  51.960
35551W        W27475   8.260  46.206  50.580
35552W        W27476  19.234  31.202  50.145
35553W        W27477   9.741  32.221  52.427
35554W        W27478   8.267  10.779  50.579
35555W        W27479  27.706  34.701  50.165
35556W        W27480  27.247   6.775  50.143
35557W        W27481  43.190  17.748  53.344
35558W        W27482  12.740  22.258  49.666
35559W        W27483  36.712  24.237  51.531
35560W        W27484  18.722  38.225  50.132
35561W        W27485  19.718  19.731  50.145
35562W        W27486   7.259  35.212  51.508
35563W        W27487   4.786  34.729  50.163
35564W        W27488  21.720  14.764  50.129
35565W        W27489  46.690  36.723  50.594
35566W        W27490  38.713  21.744  51.988
35567W        W27491  41.687  42.721  50.604
35568W        W27492  30.234   2.273  51.036
35569W        W27493  28.209  28.242  51.971
35570W        W27494  16.767   2.760  51.533
35571W        W27495   6.271  46.695  53.809
35572W        W27496  45.181  11.734  51.042
35573W        W27497  24.749  33.726  53.780
35574W        W27498  38.714   0.269  49.700
35575W        W27499  38.723  13.273  52.863
35576W        W27500  44.704  34.238  50.130
35577W        W27501  12.277  10.757  50.134
35578W        W27502  14.264  40.701  50.121
35579W        W27503  29.705  46.705  50.615
35580W        W27504  18.723  19.751  52.875
35581W        W27505  45.180  10.263  51.952
35582W        W27506   0.265  31.700  51.073
35583W        W27507   9.782   6.787  51.987
35584W        W27508   4.266   7.269  50.593
35585W        W27509  18.269   4.784  51.978
35586W        W27510  42.225  14.257  50.130
35587W        W27511  35.726  44.681  52.890
35588W        W27512  42.727  37.205  51.519
35589W        W27513  29.715  17.750  52.884
35590W        W27514   1.288   6.782  53.355
35591W        W27515  23.740  26.231  51.047
35592W        W27516  30.707   1.754  52.436
35593W        W27517   6.265   0.782  49.678
35594W        W27518   5.761  11.772  49.684
35595W        W27519   8.249  29.736  51.038
35596W        W27520  11.248  32.736  50.145
35597W        W27521  39.701  27.227  49.666
35598W        W27522  36.232  10.775  53.813
35599W        W27523  13.772   2.254  50.618
35600W        W27524  22.226  14.729  52.896
35601W        W27525  43.223  21.246  51.975
35602W        W27526  23.234  31.704  49.697
35603W        W27527  16.746  36.725  51.077
35604W        W27528   7.771  31.211  52.426
35605W        W27529  35.698   3.291  50.151
35606W        W27530  25.717  36.705  51.515
35607W        W27531  22.746  38.196  51.526
35608W        W27532   4.765  46.177  51.065
35609W        W27533  21.246  17.742  51.958
35610W        W27534  23.226  44.178  52.866
35611W        W27535  45.692  32.210  51.060
35612W        W27536  45.201  10.758  52.428
35613W        W27537   7.774  19.728  51.962
35614W        W27538  20.237  40.229  50.600
35615W        W27539  34.726  16.734  51.503
35616W        W27540  31.736  21.741  51.055
35617W        W27541  38.227  36.210  53.807
35618W        W27542  11.745  46.221  52.419
35619W        W27543  17.771   8.245  53.788
35620W        W27544  40.213  31.699  52.412
35621W        W27545  10.734  46.197  51.058
35622W        W27546  41.185  42.183  51.037
35623W        W27547   2.293  25.249  51.974
35624W        W27548  17.747  44.679  52.863
35625W        W27549  21.724  24.752  49.707
35626W        W27550   6.280  28.204  52.428
35627W        W27551  20.745   3.757  52.859
35628W        W27552  26.748  40.215  51.970
35629W        W27553  42.203  17.271  51.969
35630W        W27554  15.269  22.255  51.955
35631W        W27555  33.225  44.698  53.792
35632W        W27556   4.770  44.714  50.133
35633W        W27557   1.770  10.756  51.958
35634W        W27558  17.723  16.749  52.417
35635W        W27559  12.276  26.238  50.143
35636W        W27560  11.741   9.781  50.156
35637W        W27561  44.697  22.218  50.155
35638W        W27562   3.759  46.678  53.356
35639W        W27563   3.758  42.197  49.672
35640W        W27564  20.230  25.220  52.903
35641W        W27565  33.713  19.230  50.160
35642W        W27566  16.723  40.222  52.878
35643W        W27567   9.743   6.245  53.316
35644W        W27568   2.763  14.275  51.987
35645W        W27569  41.209  38.195  49.686
35646W        W27570  44.223  23.738  50.618
35647W        W27571   4.248  29.206  50.581
35648W        W27572  34.705   4.246  53.337
35649W        W27573  11.750   2.750  53.813
35650W        W27574  40.726  30.735  50.152
35651W        W27575  48.183   7.275  51.049
35652W        W27576  20.746  13.755  50.594
35653W        W27577  28.738   4.259  53.805
35654W        W27578  39.708  22.721  51.958
35655W        W27579   7.784  34.720  51.950
35656W        W27580  20.760  13.251  49.675
35657W        W27581  17.243  10.751  52.407
35658W        W27582   9.780  36.216  51.064
35659W        W27583   2.266  16.765  53.774
35660W        W27584  38.190  21.744  53.778
35661W        W27585   5.757  32.214  53.332
35662W        W27586  36.206  37.234  51.074
35663W        W27587  13.259  48.188  49.694
35664W        W27588  35.217  27.229  49.678
35665W        W27589   7.740  44.179  52.425
35666W        W27590  28.722   7.259  53.799
35667W        W27591   8.763  18.764  51.517
35668W        W27592   9.266  11.266  53.331
35669W        W27593  37.220  30.238  52.405
35670W        W27594  20.739  31.243  51.071
35671W        W27595  20.247  21.732  51.078
35672W        W27596  26.228   4.268  51.492
35673W        W27597  28.743   4.262  51.973
35674W        W27598  15.240  18.241  51.989
35675W        W27599  19.736  48.172  52.432
35676W        W27600  44.214  23.711  51.514
35677W        W27601  40.688   0.789  53.816
35678W        W27602  13.752  41.214  49.697
35679W        W27603  15.259  42.729  53.327
35680W        W27604  17.254  24.235  53.332
35681W        W27605  48.217  47.183  51.512
35682W        W27606  17.240  15.774  53.350
35683W        W27607  10.260  30.703  53.779
35684W        W27608  41.717  16.257  52.896
35685W        W27609  48.184   5.248  52.409
35686W        W27610  44.699   0.281  53.816
35687W        W27611  26.747   0.263  53.795
35688W        W27612  11.233   2.755  51.508
35689W        W27613   5.773  20.725  51.977
35690W        W27614  13.238  25.244  50.599
35691W        W27615  23.226  43.694  51.044
35692W        W27616  24.223   4.788  51.060
35693W        W27617  37.735   6.276  50.130
35694W        W27618  20.763   1.256  53.805
35695W        W27619  28.711  48.213  51.038
35696W        W27620  24.230  45.189  50.141
35697W        W27621  15.768   0.797  53.786
35698W        W27622   1.787  25.231  52.893
35699W        W27623  39.196   2.780  51.957
35700W        W27624  15.259  30.748  51.960
35701W        W27625  22.713  14.228  53.341
35702W        W27626  40.209   1.289  49.706
35703W        W27627  44.720  29.703  52.871
35704W        W27628  11.239  18.243  50.137
35705W        W27629  31.211  46.676  53.329
35706W        W27630  33.225   2.279  51.524
35707W        W27631  21.264  45.699  49.672
35708W        W27632   9.773  12.274  53.336
35709W        W27633  31.230  38.210  51.072
35710W        W27634  44.198  34.718  49.679
35711W        W27635  25.735  10.283  53.793
35712W        W27636  30.236  38.231  51.516
35713W        W27637  39.707  19.725  51.527
35714W        W27638  39.723  24.730  51.951
35715W        W27639  39.211  42.689  52.891
35716W        W27640  47.210  20.241  51.498
35717W        W27641  19.761  39.213  53.359
35718W        W27642  19.740  10.757  51.955
35719W        W27643  14.245  40.216  49.668
35720W        W27644  48.182  13.737  52.880
35721W        W27645  21.233  23.746  51.053
35722W        W27646  44.187   0.764  51.516
35723W        W27647  46.205  16.755  50.590
35724W        W27648  10.751  37.229  50.136
35725W        W27649  33.711   7.756  51.043
35726W        W27650  46.721  11.764  52.865
35727W        W27651  32.716  12.771  52.881
35728W        W27652  36.712  35.702  51.986
35729W        W27653  42.201   1.277  49.689
35730W        W27654  34.240  33.227  51.957
35731W        W27655  10.253  40.191  52.900
35732W        W27656  33.738  24.234  51.962
35733W        W27657  39.685  39.727  49.673
35734W        W27658   4.262  33.724  50.588
35735W        W27659  44.205  34.204  51.075
35736W        W27660  17.236  22.727  52.411
35737W        W27661  42.686  38.224  52.881
35738W        W27662  31.734  30.205  51.973
35739W        W27663  37.191  15.766  49.676
35740W        W27664  29.231   8.759  51.511
35741W        W27665  22.222   8.739  51.504
35742W        W27666  34.726  17.754  52.441
35743W        W27667  32.711  28.208  52.890
35744W        W27668  14.244  24.245  51.972
35745W        W27669  41.692  26.249  50.618
35746W        W27670  30.249   0.781  53.329
35747W        W27671  33.196  41.681  52.420
35748W        W27672  16.732  34.220  50.151
35749W        W27673  22.256  21.740  51.991
35750W        W27674  18.236  25.226  51.066
35751W        W27675  19.767  25.212  51.528
35752W        W27676  19.248  11.750  52.861
35753W        W27677  28.221  31.231  52.417
35754W        W27678  10.270   9.243  51.992
35755W        W27679  46.697  14.773  51.988
35756W        W27680  43.703  38.704  51.969
35757W        W27681  27.727  20.223  53.359
35758W        W27682  45.690   9.734  53.330
35759W        W27683  33.227   5.769  51.069
35760W        W27684  28.721  21.260  51.035
35761W        W27685  11.248  11.243  50.152
35762W        W27686  23.217   6.287  51.523
35763W        W27687   7.780   1.265  51.965
35764W        W27688  34.739  24.255  51.068
35765W        W27689  24.751   3.776  51.074
35766W        W27690   6.753  31.705  53.774
35767W        W27691  34.211  26.231  52.885
35768W        W27692  48.185  13.772  51.961
35769W        W27693  36.737  12.273  51.048
35770W        W27694  48.218  38.209  50.121
35771W        W27695  38.710  20.748  53.359
35772W        W27696  31.746  44.213  51.954
35773W        W27697  19.749  24.233  51.970
35774W        W27698  34.223  18.243  50.604
35775W        W27699   7.756  34.711  51.065
35776W        W27700  37.205  43.708  50.142
35777W        W27701  15.744  23.731  52.444
35778W        W27702  48.187   6.776  52.447
35779W        W27703  46.689  39.202  53.809
35780W        W27704  20.231  13.764  51.066
35781W        W27705  12.742  41.688  53.783
35782W        W27706  26.715  22.223  49.680
35783W        W27707  22.235  18.748  50.584
35784W        W27708  10.742  15.245  52.423
35785W        W27709  35.711   3.751  49.672
35786W        W27710  40.213  47.220  49.699
35787W        W27711  39.195  40.228  50.584
35788W        W27712  10.240  11.280  53.789
35789W        W27713  44.699  46.194  52.424
35790W        W27714  26.239  19.741  50.150
35791W        W27715  11.239  27.740  50.145
35792W        W27716  39.692   9.752  52.876
35793W        W27717  32.728  37.691  52.414
35794W        W27718  36.732  13.776  50.588
35795W        W27719  44.688  40.221  49.673
35796W        W27720  32.235  19.726  51.962
35797W        W27721  17.227  41.194  52.898
35798W        W27722  47.715  29.242  50.137
35799W        W27723   8.777  36.690  53.317
35800W        W27724  14.259  44.707  50.584
35801W        W27725  30.746   0.258  53.810
35802W        W27726  40.209   8.262  50.140
35803W        W27727  39.226  26.238  51.494
35804W        W27728  42.185  12.264  52.881
35805W        W27729  43.188  40.189  52.903
35806W        W27730  39.221   0.277  52.412
35807W        W27731  30.729  37.705  53.331
35808W        W27732  47.195  44.190  49.690
35809W        W27733  23.212   0.781  52.864
35810W        W27734  46.695  19.219  49.678
35811W        W27735  25.237  14.242  49.693
35812W        W27736  14.267   3.752  51.050
35813W        W27737   8.764  28.744  50.585
35814W        W27738  36.710  44.198  52.874
35815W        W27739  42.216  39.234  50.620
35816W        W27740  27.210  13.232  51.052
35817W        W27741  10.769  20.756  51.499
35818W        W27742  10.736  11.778  51.948
35819W        W27743   7.247   2.292  52.422
35820W        W27744  29.726  28.707  51.960
35821W        W27745  28.737   2.767  50.593
35822W        W27746  42.709  11.734  51.959
35823W        W27747  35.207  11.733  49.703
35824W        W27748   7.787  29.716  50.144
35825W        W27749   8.778   9.266  51.063
35826W        W27750  22.751  29.704  51.529
35827W        W27751   0.294  26.250  53.788
35828W        W27752  30.243  40.219  51.953
35829W        W27753  28.235  13.276  50.622
35830W        W27754  32.714   8.252  52.873
35831W        W27755  41.702  18.234  52.405
35832W        W27756  31.237  32.706  51.532
35833W        W27757   5.772  26.213  51.073
35834W        W27758  31.728  25.756  51.991
35835W        W27759  27.248  31.739  49.692
35836W        W27760   7.772  25.250  49.701
35837W        W27761   6.760  36.228  52.405
35838W        W27762   6.749  13.269  51.075
35839W        W27763  42.685  26.708  49.704
35840W        W27764  45.209   3.763  51.491
35841W        W27765  22.741  25.208  52.861
35842W        W27766   2.754   0.780  52.425
35843W        W27767  31.738  31.243  53.341
35844W        W27768  11.740  45.677  52.407
35845W        W27769  46.718  25.751  53.803
35846W        W27770  11.234  11.778  51.973
35847W        W27771  48.182  10.235  51.043
35848W        W27772  28.218   4.282  51.050
35849W        W27773  33.229  17.251  53.359
35850W        W27774  18.246  37.714  52.886
35851W        W27775  40.730  44.683  53.813
35852W        W27776  20.219  15.736  51.077
35853W        W27777  29.741  13.241  50.124
35854W        W27778  24.713  21.252  53.328
35855W        W27779  19.252   1.273  49.697
35856W        W27780   5.758  37.230  50.596
35857W        W27781  15.743  10.780  51.981
35858W        W27782  29.250   4.263  49.699
35859W        W27783  29.225  11.733  50.592
35860W        W27784  48.191  18.246  53.800
35861W        W27785  35.198  15.772  53.342
35862W        W27786  41.216   0.764  50.135
35863W        W27787   3.746  13.735  51.046
35864W        W27788   8.282  14.270  49.668
35865W        W27789  25.719   9.780  49.670
35866W        W27790  40.217   5.247  51.506
35867W        W27791  27.218  32.717  50.592
35868W        W27792  45.676  32.742  52.898
35869W        W27793  41.225  12.270  53.816
35870W        W27794   3.792  36.210  50.598
35871W        W27795  11.274  30.726  50.146
35872W        W27796  22.752  33.726  52.418
35873W        W27797  39.725  26.708  53.331
35874W        W27798  20.717  29.733  51.973
35875W        W27799  46.186  38.710  53.801
35876W        W27800  29.242   7.775  51.497
35877W        W27801   4.785  43.182  51.065
35878W        W27802   2.258  17.725  50.142
35879W        W27803  42.687  42.691  53.335
35880W        W27804  45.703  32.715  51.510
35881W        W27805   3.280  14.747  53.788
35882W        W27806  47.715  36.205  51.517
35883W        W27807  42.185   8.743  50.578
35884W        W27808  36.215   5.273  52.882
35885W        W27809  44.713  18.744  52.435
35886W        W27810  22.758  47.186  52.439
35887W        W27811  44.688  43.700  50.588
35888W        W27812   8.771  37.201  52.437
35889W        W27813  47.675  14.255  51.034
35890W        W27814  47.697  16.230  49.690
35891W        W27815  18.749  39.693  50.595
35892W        W27816   2.755  23.252  53.806
35893W        W27817  30.738  34.205  52.410
35894W        W27818  32.225  42.687  53.329
35895W        W27819   3.258  28.742  50.617
35896W        W27820   6.772  19.758  49.677
35897W        W27821   9.267  24.221  51.046
35898W        W27822  13.265  20.260  51.952
35899W        W27823   1.766  14.236  53.814
35900W        W27824  31.728  35.712  50.582
35901W        W27825  29.721  26.239  49.689
35902W        W27826   1.777  33.708  52.403
35903W        W27827  28.751  44.698  52.412
35904W        W27828  25.216  30.722  53.811
35905W        W27829   3.764  16.756  52.881
35906W        W27830   6.260   4.743  51.061
35907W        W27831  10.778  25.237  50.612
35908W        W27832   6.272  26.737  52.894
35909W        W27833  30.217  36.702  50.608
35910W        W27834  14.738  22.250  51.510
35911W        W27835  41.689  31.734  51.492
35912W        W27836  46.712  31.698  52.887
35913W        W27837   0.763  26.227  52.431
35914W        W27838  36.697  47.198  52.430
35915W        W27839  12.733  38.691  52.884
35916W        W27840  32.245   9.782  51.964
35917W        W27841  41.721  22.730  51.981
35918W        W27842  22.743  43.224  49.674
35919W        W27843   8.741  42.686  51.520
35920W        W27844  25.218  27.716  50.162
35921W        W27845  41.711  42.218  51.058
35922W        W27846   5.244  38.718  53.343
35923W        W27847  38.713  28.213  53.772
35924W        W27848   2.253  20.220  51.979
35925W        W27849  15.253  46.711  49.672
35926W        W27850  34.714  16.231  51.048
35927W        W27851   9.238  35.193  51.499
35928W        W27852  46.695   8.281  52.420
35929W        W27853   4.250   4.285  52.904
35930W        W27854  22.756  45.199  50.605
35931W        W27855  10.238  39.720  52.861
35932W        W27856  27.747  18.735  51.523
35933W        W27857   1.774  15.237  53.337
35934W        W27858  19.248   7.257  49.688
35935W        W27859  28.704  43.700  53.786
35936W        W27860  42.201  20.263  52.887
35937W        W27861  10.272   7.278  50.585
35938W        W27862  39.211   2.283  50.132
35939W        W27863  37.700  14.258  49.690
35940W        W27864  37.215  40.202  52.876
35941W        W27865  14.767   6.272  51.515
35942W        W27866   1.758  20.755  50.603
35943W        W27867  25.210  15.243  53.808
35944W        W27868  10.748  47.702  51.979
35945W        W27869  30.237  22.729  50.150
35946W        W27870  27.739   1.787  52.883
35947W        W27871  26.223  31.733  53.352
35948W        W27872  21.759   6.277  52.421
35949W        W27873  38.214   4.784  52.422
35950W        W27874   6.750  33.741  52.882
35951W        W27875  27.713  21.730  51.949
35952W        W27876  41.705  31.201  52.862
35953W        W27877  27.246  13.738  51.053
35954W        W27878  35.227  35.727  51.035
35955W        W27879  39.685  45.176  53.798
35956W        W27880   1.793  48.215  51.496
35957W        W27881  33.220  28.743  51.066
35958W        W27882  15.764  30.700  51.495
35959W        W27883   9.248  25.742  49.709
35960W        W27884  20.257  17.764  49.696
35961W        W27885  24.725  44.711  53.790
35962W        W27886  46.723  48.197  53.802
35963W        W27887  18.236  16.763  53.318
35964W        W27888  11.759  47.182  53.772
35965W        W27889  10.753  41.189  50.592
35966W        W27890  17.771  20.722  52.896
35967W        W27891  18.221   1.784  52.407
35968W        W27892  26.238  45.199  53.816
35969W        W27893  25.231  37.737  52.416
35970W        W27894   9.766  43.680  53.802
35971W        W27895  34.718  41.715  51.528
35972W        W27896  12.770  39.190  52.901
35973W        W27897   9.256   6.786  51.508
35974W        W27898  20.724   5.774  50.154
35975W        W27899  10.269  30.214  52.882
35976W        W27900  46.186  31.728  49.683
35977W        W27901  42.727  25.218  50.618
35978W        W27902  39.701  27.752  51.520
35979W        W27903  32.230  32.728  53.812
35980W        W27904  22.733   6.274  53.774
35981W        W27905   1.271  46.674  49.700
35982W        W27906  42.222   3.786  53.348
35983W        W27907  25.735  15.237  53.333
35984W        W27908  29.733  13.777  51.535
35985W        W27909  11.731  15.243  49.708
35986W        W27910   9.742  15.234  51.535
35987W        W27911   7.772  36.693  52.860
35988W        W27912  16.255  44.189  52.884
35989W        W27913  33.200  26.253  51.975
35990W        W27914  18.226  16.257  50.584
35991W        W27915   1.751   9.285  51.075
35992W        W27916  29.747  14.251  49.677
35993W        W27917  38.713  16.758  50.578
35994W        W27918  28.750  33.205  52.441
35995W        W27919  34.230  12.733  53.351
35996W        W27920  23.259   3.275  50.605
35997W        W27921  24.213  20.220  51.954
35998W        W27922  42.229  23.237  49.680
35999W        W27923   2.286  22.762  52.413
36000W        W27924  24.757  42.689  50.584
36001W        W27925  17.262  29.718  52.860
36002W        W27926  11.264  35.712  51.976
36003W        W27927   4.270  33.215  52.862
36004W        W27928  32.721  43.210  53.818
36005W        W27929  30.216   0.796  53.812
36006W        W27930   1.258   0.285  51.974
36007W        W27931  33.225  26.235  52.899
36008W        W27932  28.746  45.703  51.988
36009W        W27933  33.214  38.735  53.341
36010W        W27934  41.726  47.175  51.969
36011W        W27935  33.735  16.744  51.952
36012W        W27936   1.264  32.719  50.592
36013W        W27937  11.736  42.697  51.079
36014W        W27938  19.234   3.760  50.135
36015W        W27939   1.773  18.258  50.166
36016W        W27940  34.729  32.718  50.149
36017W        W27941   3.247  46.704  53.808
36018W        W27942  10.265  37.198  51.517
36019W        W27943  44.180  44.690  52.407
36020W        W27944  26.210  27.746  51.948
36021W        W27945   4.257  24.710  53.791
36022W        W27946  48.211  36.695  51.981
36023W        W27947   2.285  17.235  51.957
36024W        W27948  33.210  14.235  51.073
36025W        W27949   8.769  11.756  52.895
36026W        W27950  17.255  27.733  50.613
36027W        W27951  13.758  19.731  53.331
36028W        W27952  42.686  27.710  53.773
36029W        W27953   6.261  34.724  52.900
36030W        W27954  20.260   3.283  49.670
36031W        W27955   5.257  34.200  51.057
36032W        W27956  33.220   9.244  53.332
36033W        W27957  48.194  19.222  49.706
36034W        W27958  26.219  34.697  51.039
36035W        W27959  45.677   6.777  51.981
36036W        W27960  26.247   0.293  51.034
36037W        W27961  34.240  27.727  49.706
36038W        W27962  35.740  19.249  52.432
36039W        W27963   1.793  13.732  51.034
36040W        W27964  27.710  24.251  52.419
36041W        W27965  14.772   8.262  51.957
36042W        W27966  33.717  24.714  50.140
36043W        W27967  16.738  43.196  52.877
36044W        W27968   3.772  35.215  49.685
36045W        W27969  23.714  47.720  53.341
36046W        W27970  25.210  26.254  53.330
36047W        W27971  40.717   9.778  51.956
36048W        W27972  13.754  10.747  53.778
36049W        W27973  32.240  39.191  53.348
36050W        W27974  15.773  41.205  51.947
36051W        W27975  43.724   5.775  53.811
36052W        W27976  20.262  20.235  50.593
36053W        W27977  25.234  31.741  53.797
36054W        W27978  38.201  36.724  53.773
36055W        W27979  28.252  20.727  53.348
36056W        W27980  11.765  27.244  52.883
36057W        W27981   7.751  38.195  51.980
36058W        W27982  24.712  16.748  52.420
36059W        W27983  22.219  28.748  49.702
36060W        W27984   7.240   2.251  51.041
36061W        W27985   8.248  19.238  51.509
36062W        W27986  24.734  34.235  50.138
36063W        W27987  18.737  23.212  51.951
36064W        W27988   6.779   1.770  53.802
36065W        W27989  21.720  43.222  51.950
36066W        W27990   9.240  17.242  52.444
36067W        W27991  34.213  15.739  50.162
36068W        W27992   6.264  28.244  51.061
36069W        W27993  30.743  14.234  51.503
36070W        W27994  19.730  40.705  50.598
36071W        W27995   9.265  31.704  49.695
36072W        W27996   6.781  33.228  51.505
36073W        W27997  47.212  12.265  52.860
36074W        W27998  15.751  45.705  51.512
36075W        W27999  44.718  26.741  49.698
36076W        W28000  41.206   0.296  51.510
36077W        W28001   3.754   9.752  49.679
36078W        W28002  27.233  11.767  51.497
36079W        W28003  47.685  36.219  52.892
36080W        W28004  44.225  39.233  53.353
36081W        W28005  21.760  17.231  52.409
36082W        W28006  33.716  38.696  52.887
36083W        W28007   2.256  37.212  53.346
36084W        W28008  48.216  45.682  51.064
36085W        W28009  34.720  43.191  53.359
36086W        W28010  47.177  29.220  50.157
36087W        W28011  31.747   1.776  52.423
36088W        W28012   8.769  12.770  51.075
36089W        W28013  26.255  42.727  53.794
36090W        W28014  47.711  15.735  50.149
36091W        W28015  26.730  38.213  53.776
36092W        W28016  21.721  40.702  53.806
36093W        W28017  26.256   7.261  51.519
36094W        W28018  45.182  46.711  49.694
36095W        W28019  41.692   0.797  53.781
36096W        W28020  34.222  13.758  52.405
36097W        W28021  39.690  43.206  52.903
36098W        W28022  18.232  46.722  51.490
36099W        W28023  43.723   8.756  51.076
36100W        W28024  20.764   7.765  49.693
36101W        W28025  27.232  12.234  53.798
36102W        W28026  14.748  30.729  50.124
36103W        W28027   0.753  47.183  50.613
36104W        W28028  19.261   0.766  50.579
36105W        W28029  44.681  26.744  52.894
36106W        W28030  12.246  11.751  51.496
36107W        W28031  32.708  11.269  53.796
36108W        W28032   8.275  29.251  51.048
36109W        W28033  23.245  27.247  49.678
36110W        W28034  20.741  31.747  51.043
36111W        W28035  20.764  11.764  51.964
36112W        W28036  32.705  48.200  51.523
36113W        W28037   5.749  36.199  52.866
36114W        W28038   1.265  19.738  53.351
36115W        W28039   9.768   8.246  51.510
36116W        W28040  37.693  47.719  53.817
36117W        W28041  14.235   8.765  52.888
36118W        W28042  19.254  40.190  52.874
36119W        W28043  39.729  12.767  52.423
36120W        W28044   5.755   5.772  50.616
36121W        W28045  36.213  38.224  50.579
36122W        W28046  41.225   5.781  52.886
36123W        W28047  23.758   4.289  52.424
36124W        W28048   2.257   7.785  51.042
36125W        W28049  48.219  11.775  52.900
36126W        W28050  24.718   7.245  50.127
36127W        W28051   7.265  18.239  52.867
36128W        W28052   8.282   0.794  51.492
36129W        W28053  29.716  30.230  53.815
36130W        W28054   0.294   6.746  50.588
36131W        W28055  21.233  12.251  52.877
36132W        W28056  15.269  15.253  51.045
36133W        W28057  27.211  17.243  50.612
36134W        W28058  38.220  11.260  51.976
36135W        W28059  15.758  18.754  53.318
36136W        W28060   6.778  40.724  49.705
36137W        W28061  47.680  26.753  50.586
36138W        W28062  28.252   0.259  52.890
36139W        W28063   1.758  15.258  52.891
36140W        W28064  34.204  23.726  51.056
36141W        W28065  21.254  19.753  52.420
36142W        W28066  33.722   4.253  53.793
36143W        W28067  22.732   4.780  53.332
36144W        W28068  46.722  37.192  50.594
36145W        W28069  21.755  34.205  51.047
36146W        W28070   7.265  33.243  52.422
36147W        W28071  45.222   0.771  51.965
36148W        W28072  28.741  12.269  50.590
36149W        W28073  21.752  23.254  53.808
36150W        W28074  31.221   6.252  50.586
36151W        W28075   9.745  44.682  53.345
36152W        W28076  32.230  27.713  51.072
36153W        W28077  36.224  40.725  51.067
36154W        W28078  20.745   9.774  51.078
36155W        W28079  36.230  19.249  51.524
36156W        W28080  19.241  28.223  51.518
36157W        W28081  26.720   2.261  51.528
36158W        W28082  45.677  19.753  49.690
36159W        W28083   4.246  17.770  53.353
36160W        W28084  30.745  11.751  51.043
36161W        W28085  43.221  37.716  50.587
36162W        W28086  32.720  47.696  51.079
36163W        W28087  23.722   6.272  51.078
36164W        W28088   3.747  37.734  53.777
36165W        W28089  47.211  43.186  51.034
36166W        W28090  46.718  35.691  51.511
36167W        W28091   9.257  38.226  51.956
36168W        W28092  21.760  25.249  53.319
36169W        W28093  30.727  31.701  49.672
36170W        W28094   8.261  27.254  50.160
36171W        W28095  46.218  26.249  51.958
36172W        W28096  16.764  34.237  52.438
36173W        W28097  38.711  10.270  51.058
36174W        W28098  12.778  41.210  53.355
36175W        W28099  32.228  27.719  52.410
36176W        W28100  18.267  47.191  52.406
36177W        W28101  31.739  20.736  52.872
36178W        W28102  26.256  36.195  51.074
36179W        W28103  36.716   5.253  53.808
36180W        W28104  14.735  17.753  53.322
36181W        W28105  39.204  37.194  51.983
36182W        W28106  22.743  44.214  52.875
36183W        W28107   3.284  30.248  53.784
36184W        W28108  26.742   9.247  51.985
36185W        W28109  13.268  36.698  49.686
36186W        W28110  29.731  47.188  53.339
36187W        W28111  34.221  24.742  51.965
36188W        W28112  44.211  13.252  50.600
36189W        W28113   2.750  18.226  52.885
36190W        W28114  34.217  29.743  51.953
36191W        W28115   0.297   6.268  50.133
36192W        W28116  31.229  21.232  50.614
36193W        W28117   5.749  42.725  53.789
36194W        W28118  37.703  13.230  51.492
36195W        W28119  48.203  39.215  50.157
36196W        W28120  32.738   3.752  52.895
36197W        W28121  27.742  44.713  52.439
36198W        W28122  25.215  47.183  51.510
36199W        W28123  34.229  19.741  50.598
36200W        W28124  12.740   9.754  53.804
36201W        W28125  17.752  30.736  50.147
36202W        W28126  42.690  30.718  51.494
36203W        W28127   3.767   2.288  53.794
36204W        W28128  14.246  34.194  53.352
36205W        W28129  33.243  46.216  51.510
36206W        W28130  25.230   8.754  51.077
36207W        W28131  19.744  30.738  51.977
36208W        W28132  23.745   9.243  49.692
36209W        W28133  43.701  13.236  49.697
36210W        W28134  31.698   6.270  51.071
36211W        W28135   7.250  24.256  53.347
36212W        W28136  13.740  33.742  52.865
36213W        W28137  37.227  38.199  51.060
36214W        W28138  19.727  35.193  49.693
36215W        W28139   0.290  22.234  51.974
36216W        W28140  25.752   3.248  51.043
36217W        W28141  16.230  46.202  53.813
36218W        W28142  17.229  42.210  53.785
36219W        W28143  23.714  12.778  51.962
36220W        W28144  18.244   5.273  51.038
36221W        W28145  31.731  45.685  52.886
36222W        W28146  21.256  44.210  51.065
36223W        W28147   0.288   7.776  53.794
36224W        W28148  29.225  44.192  51.498
36225W        W28149  24.737   1.779  51.074
36226W        W28150  37.233  27.249  52.868
36227W        W28151   3.788  41.190  51.991
36228W        W28152  16.256  16.730  51.042
36229W        W28153  29.238  30.208  51.076
36230W        W28154  20.754  30.245  49.694
36231W        W28155   2.747  13.237  49.700
36232W        W28156  42.683  23.738  50.600
36233W        W28157  46.687  13.748  51.510
36234W        W28158  27.219  42.208  50.125
36235W        W28159  40.704  42.219  51.957
36236W        W28160  14.258  48.188  50.600
36237W        W28161   5.268  44.192  50.578
36238W        W28162  27.730  10.745  50.140
36239W        W28163   8.242   5.254  51.494
36240W        W28164   3.774  47.719  52.431
36241W        W28165  30.210  31.235  51.507
36242W        W28166  21.736  48.208  52.438
36243W        W28167   4.289   2.273  51.498
36244W        W28168  15.751  14.761  51.058
36245W        W28169  21.743  28.752  53.779
36246W        W28170   8.756   0.289  53.352
36247W        W28171  33.218  42.687  52.896
36248W        W28172  45.678  38.195  51.060
36249W        W28173  46.205  38.735  52.432
36250W        W28174   2.288  11.268  53.783
36251W        W28175  33.212   7.775  52.865
36252W        W28176  28.733  38.713  52.420
36253W        W28177  41.182  46.678  52.423
36254W        W28178  34.713  37.702  51.990
36255W        W28179  16.230  18.765  52.410
36256W        W28180  42.706  16.236  51.037
36257W        W28181  12.744   4.269  53.358
36258W        W28182   6.277   6.286  53.341
36259W        W28183   5.288  45.213  51.491
36260W        W28184  15.268  13.755  51.984
36261W        W28185  20.757   9.752  53.788
36262W        W28186   1.750  21.235  49.673
36263W        W28187  28.726  41.191  51.052
36264W        W28188  39.196   2.788  53.322
36265W        W28189  45.713  40.225  53.780
36266W        W28190  21.230   6.283  52.435
36267W        W28191  16.734  47.193  51.512
36268W        W28192  32.732  19.742  51.977
36269W        W28193   3.786  43.696  52.865
36270W        W28194   2.270  47.691  53.320
36271W        W28195  30.739  38.216  50.613
36272W        W28196  15.751  16.254  53.316
36273W        W28197  30.202   1.787  52.878
36274W        W28198  43.190  31.745  49.675
36275W        W28199  37.210  16.769  50.611
36276W        W28200  19.744  21.236  52.426
36277W        W28201  12.242   3.245  50.149
36278W        W28202  31.241  24.254  50.144
36279W        W28203  12.271  39.207  50.136
36280W        W28204  40.692  45.723  52.879
36281W        W28205  32.707  18.246  53.331
36282W        W28206  36.208  27.230  53.343
36283W        W28207   9.284  29.735  51.953
36284W        W28208  32.242  12.763  52.881
36285W        W28209   7.250  17.229  53.773
36286W        W28210  36.229  44.195  53.791
36287W        W28211  26.726   5.778  50.126
36288W        W28212  36.716  37.736  49.694
36289W        W28213  44.706   1.252  53.324
36290W        W28214  22.249  40.732  51.966
36291W        W28215  25.249  43.725  50.608
36292W        W28216  39.205  35.225  52.413
36293W        W28217  22.761  31.747  52.880
36294W        W28218   0.289  20.252  53.322
36295W        W28219  45.698  36.739  52.426
36296W        W28220  20.717  31.244  53.802
36297W        W28221  45.205  22.214  52.871
36298W        W28222  11.274  38.216  51.948
36299W        W28223   3.275  20.721  53.788
36300W        W28224  36.730  29.251  53.345
36301W        W28225  44.700  20.259  52.435
36302W        W28226   4.259  26.224  53.335
36303W        W28227  43.182  15.753  50.601
36304W        W28228  33.236   9.749  51.077
36305W        W28229   1.771  29.743  53.805
36306W        W28230   4.265   1.763  51.508
36307W        W28231   7.286   9.262  50.128
36308W        W28232  13.257  37.721  51.516
36309W        W28233  31.706  44.196  50.155
36310W        W28234  28.737   7.258  52.425
36311W        W28235  39.207  14.749  52.426
36312W        W28236   5.266  12.249  49.673
36313W        W28237  20.220  24.229  49.692
36314W        W28238  41.192   2.288  52.890
36315W        W28239  45.702  44.679  50.121
36316W        W28240   3.770  12.760  53.816
36317W        W28241  39.215  30.231  49.685
36318W        W28242  46.207  39.709  53.358
36319W        W28243   9.780  23.746  53.332
36320W        W28244  19.752  46.717  52.886
36321W        W28245  46.709   4.256  49.697
36322W        W28246   6.778  27.253  53.780
36323W        W28247  45.202  23.728  49.666
36324W        W28248  43.189  29.247  52.412
36325W        W28249  39.199  43.709  51.068
36326W        W28250  35.712  17.238  51.953
36327W        W28251  19.221  42.186  52.409
36328W        W28252  27.218   2.293  51.510
36329W        W28253  27.215  30.222  51.078
36330W        W28254  42.186  44.706  49.678
36331W        W28255  13.757   3.261  50.152
36332W        W28256   5.254  45.702  51.062
36333W        W28257  16.256  39.188  53.784
36334W        W28258   9.242   7.270  52.891
36335W        W28259  42.215  40.703  51.063
36336W        W28260  25.251   3.746  53.328
36337W        W28261  12.234  28.248  53.804
36338W        W28262   8.257  19.239  51.981
36339W        W28263  19.229  32.218  52.411
36340W        W28264  47.201  48.172  53.331
36341W        W28265  19.757  47.174  51.047
36342W        W28266   4.261  28.717  53.344
36343W        W28267   4.753  34.223  53.353
36344W        W28268  46.188   4.291  50.158
36345W        W28269  38.722  38.204  51.520
36346W        W28270   6.775   5.248  52.864
36347W        W28271  30.225  10.761  50.595
36348W        W28272  36.225  19.255  51.962
36349W        W28273  31.742   5.283  50.141
36350W        W28274   8.260  34.215  50.615
36351W        W28275  22.754   2.272  52.895
36352W        W28276  10.282  39.213  50.582
36353W        W28277   0.755  38.724  50.126
36354W        W28278  21.726  29.222  50.580
36355W        W28279   9.776  45.690  51.060
36356W        W28280  28.236  21.720  52.886
36357W        W28281  46.707   8.247  51.060
36358W        W28282  14.737  48.171  51.043
36359W        W28283  36.233  34.241  50.600
36360W        W28284  47.712  42.707  49.684
36361W        W28285   4.776  22.720  50.594
36362W        W28286  24.224  27.720  52.902
36363W        W28287  27.720   8.250  50.608
36364W        W28288  31.744   4.286  50.124
36365W        W28289  31.709  36.716  53.318
36366W        W28290  46.218   0.768  51.989
36367W        W28291  21.238  31.727  49.665
36368W        W28292  20.246   7.772  52.431
36369W        W28293  39.714  44.721  51.534
36370W        W28294  24.229  37.203  53.802
36371W        W28295  10.271  21.756  49.678
36372W        W28296  19.742  10.733  50.604
36373W        W28297  18.735   5.245  49.705
36374W        W28298  28.227  18.726  51.496
36375W        W28299  30.222  41.188  53.328
36376W        W28300  18.257  29.243  51.040
36377W        W28301   5.768  44.207  51.511
36378W        W28302  33.241  41.689  50.580
36379W        W28303  39.727   6.742  51.074
36380W        W28304  33.735   8.239  52.863
36381W        W28305  22.751  20.218  50.590
36382W        W28306   0.282  18.761  51.494
36383W        W28307  35.235  47.196  53.782
36384W        W28308  30.237  17.265  51.977
36385W        W28309  35.727   0.785  50.145
36386W        W28310  41.214  10.772  50.121
36387W        W28311  20.227  41.709  52.862
36388W        W28312  13.771  14.250  50.146
36389W        W28313  12.263  12.274  49.681
36390W        W28314  23.252  42.183  49.706
36391W        W28315  34.238  46.208  51.498
36392W        W28316  37.199   8.778  51.051
36393W        W28317  29.226  32.734  51.034
36394W        W28318  30.246  31.712  51.963
36395W        W28319  32.201  21.247  50.606
36396W        W28320  11.269  27.713  51.495
36397W        W28321  44.199   4.783  51.067
36398W        W28322  16.734   9.767  52.427
36399W        W28323  18.720  23.747  52.428
36400W        W28324  44.204  26.751  53.334
36401W        W28325  14.269  20.228  51.062
36402W        W28326  11.769  11.749  53.351
36403W        W28327  32.242   6.245  53.806
36404W        W28328  12.779   6.762  52.405
36405W        W28329  11.267  22.726  53.801
36406W        W28330   7.260  21.219  51.955
36407W        W28331  13.758  40.718  50.149
36408W        W28332   4.255  32.713  53.347
36409W        W28333   5.781  36.226  53.798
36410W        W28334  42.202  41.210  49.706
36411W        W28335  47.719  16.225  51.045
36412W        W28336  16.267  10.754  50.139
36413W        W28337   4.769   1.765  49.709
36414W        W28338  31.715  22.226  52.403
36415W        W28339  36.224  20.264  53.321
36416W        W28340   6.274  25.231  51.951
36417W        W28341   8.736  41.729  52.430
36418W        W28342   9.242  33.207  53.776
36419W        W28343  18.269   9.740  51.067
36420W        W28344  37.209  41.209  50.155
36421W        W28345  13.252  27.244  49.668
36422W        W28346  22.213  45.211  49.710
36423W        W28347  20.737  24.224  51.532
36424W        W28348  12.244  30.748  51.041
36425W        W28349   7.739  11.731  52.861
36426W        W28350  18.727  14.256  53.807
36427W        W28351  29.219  31.247  51.949
36428W        W28352  42.189  29.701  49.709
36429W        W28353   5.772  38.229  50.139
36430W        W28354  20.759  33.738  49.678
36431W        W28355  31.206   4.747  51.521
36432W        W28356  16.244  26.252  53.783
36433W        W28357  35.720  24.745  52.425
36434W        W28358  44.722  24.729  52.415
36435W        W28359  44.222  15.761  50.129
36436W        W28360   1.254  46.709  53.784
36437W        W28361  16.770  38.226  50.165
36438W        W28362  42.196   0.749  52.412
36439W        W28363  17.251   3.249  49.685
36440W        W28364  33.718  18.753  51.513
36441W        W28365  23.215  35.706  53.334
36442W        W28366  26.211  46.712  51.968
36443W        W28367   1.251   2.784  50.578
36444W        W28368  16.772  40.213  53.360
36445W        W28369   0.786   7.737  53.789
36446W        W28370  47.175  28.727  50.584
36447W        W28371  11.279  17.725  51.974
36448W        W28372  25.721   5.242  49.694
36449W        W28373  29.729  19.239  53.336
36450W        W28374  39.219   7.765  50.593
36451W        W28375   0.753   3.760  49.682
36452W        W28376  30.244  29.209  51.961
36453W        W28377  12.735  39.718  51.038
36454W        W28378  10.742   9.778  53.340
36455W        W28379   0.262  24.250  50.578
36456W        W28380  40.710   9.754  51.498
36457W        W28381  26.256  38.700  49.710
36458W        W28382  33.236  15.735  51.517
36459W        W28383  40.195  30.738  51.045
36460W        W28384  22.263  41.688  52.874
36461W        W28385  10.763  27.734  51.037
36462W        W28386  29.249  29.745  53.790
36463W        W28387  34.699  42.713  51.515
36464W        W28388  38.224   9.258  53.808
36465W        W28389  25.219  10.256  53.358
36466W        W28390  12.745  29.227  52.893
36467W        W28391  35.204   3.257  53.813
36468W        W28392  24.756   5.264  51.956
36469W        W28393  16.229  23.258  51.057
36470W        W28394  36.234   4.747  50.150
36471W        W28395  11.238  24.250  50.156
36472W        W28396  42.192  44.680  52.899
36473W        W28397   8.773  18.749  52.413
36474W        W28398   4.790  42.189  53.338
36475W        W28399  36.725  19.751  52.411
36476W        W28400   0.284  34.719  50.616
36477W        W28401  18.751  18.257  51.040
36478W        W28402  23.219  22.725  52.901
36479W        W28403  20.756  42.690  49.670
36480W        W28404  30.234  15.247  51.969
36481W        W28405  19.730  36.200  50.622
36482W        W28406  26.743   7.780  50.158
36483W        W28407  36.199  44.685  49.670
36484W        W28408   6.252  34.218  52.424
36485W        W28409  15.236  29.746  53.788
36486W        W28410   9.243  33.695  50.589
36487W        W28411  36.192  34.700  50.138
36488W        W28412  22.224   8.781  52.411
36489W        W28413  27.227  36.238  49.681
36490W        W28414  46.694   8.267  50.610
36491W        W28415  10.252  37.231  53.336
36492W        W28416   6.278   8.237  51.958
36493W        W28417  10.740  35.709  51.958
36494W        W28418  10.746   7.777  53.773
36495W        W28419  24.728  25.219  49.685
36496W        W28420  20.761  24.219  49.700
36497W        W28421  20.225   8.240  52.868
36498W        W28422  17.228   7.738  52.897
36499W        W28423  44.689  28.731  51.978
36500W        W28424  48.209   5.773  50.617
36501W        W28425  44.225  40.698  51.517
36502W        W28426  40.214   2.259  49.696
36503W        W28427  19.748  24.733  51.530
36504W        W28428  35.230  24.234  52.421
36505W        W28429  23.760  25.247  52.430
36506W        W28430  17.245  22.756  51.058
36507W        W28431  35.223  29.214  49.674
36508W        W28432  19.742  20.217  50.605
36509W        W28433  33.735   1.265  52.900
36510W        W28434  22.748  21.725  50.603
36511W        W28435  27.738  22.722  51.975
36512W        W28436  12.245   8.251  51.979
36513W        W28437   3.286  39.189  49.698
36514W        W28438  47.676  43.679  51.530
36515W        W28439  11.269  12.244  50.608
36516W        W28440  29.223  31.206  49.693
36517W        W28441   8.757   3.756  51.512
36518W        W28442  20.253  19.762  52.878
36519W        W28443  14.746   7.746  53.799
36520W        W28444  30.223  36.690  52.436
36521W        W28445  14.261   3.287  52.868
36522W        W28446  28.213  32.208  53.357
36523W        W28447  36.719  38.728  50.602
36524W        W28448  21.235  48.182  52.874
36525W        W28449   0.258  16.770  52.434
36526W        W28450  22.754   1.286  51.075
36527W        W28451  13.229  40.227  53.807
36528W        W28452  17.768  17.758  52.885
36529W        W28453   7.774  23.745  49.682
36530W        W28454  42.702  32.211  52.446
36531W        W28455  23.734  39.228  52.878
36532W        W28456  19.765  33.211  52.868
36533W        W28457   1.256  37.213  52.861
36534W        W28458  15.774   1.749  51.056
36535W        W28459   0.273  27.721  50.614
36536W        W28460  39.730   3.270  51.034
36537W        W28461  43.724   1.769  53.815
36538W        W28462  47.210  33.695  51.064
36539W        W28463  39.193  30.243  51.950
36540W        W28464   1.291   6.756  51.052
36541W        W28465  46.692  40.194  51.991
36542W        W28466  14.752   9.751  51.056
36543W        W28467   3.781  44.178  51.046
36544W        W28468   8.767   4.787  50.613
36545W        W28469  22.249  47.185  50.127
36546W        W28470  21.757  27.735  51.515
36547W        W28471  15.246  27.713  53.359
36548W        W28472  44.200   1.781  51.495
36549W        W28473   2.748   3.288  51.975
36550W        W28474  46.703  21.229  51.973
36551W        W28475  37.695  15.768  50.618
36552W        W28476  10.253  24.756  53.334
36553W        W28477   6.244  15.761  49.679
36554W        W28478  18.765  18.742  51.529
36555W        W28479  46.676  47.221  51.075
36556W        W28480  42.203  25.716  52.895
36557W        W28481   1.763  36.200  51.514
36558W        W28482  41.706   8.264  50.133
36559W        W28483  10.253  10.779  52.889
36560W        W28484   3.778  39.206  50.618
36561W        W28485   9.746  25.254  50.159
36562W        W28486  26.738   9.271  49.690
36563W        W28487  20.720  47.184  50.152
36564W        W28488  47.692  13.739  50.579
36565W        W28489  23.223  17.252  50.580
36566W        W28490  20.718  37.228  49.665
36567W        W28491  42.710   3.272  49.665
36568W        W28492  30.728  34.205  53.781
36569W        W28493   5.284   7.271  51.978
36570W        W28494  45.208  22.760  53.799
36571W        W28495  41.221  36.701  50.127
36572W        W28496  29.718  19.225  51.529
36573W        W28497   4.775  38.712  53.317
36574W        W28498   5.243  34.243  53.784
36575W        W28499   1.789  45.705  53.337
36576W        W28500  41.189  46.679  52.883
36577W        W28501  39.220  23.250  52.872
36578W        W28502   6.744  47.214  51.073
36579W        W28503  45.207  10.762  51.519
36580W        W28504   0.782   7.763  52.884
36581W        W28505  25.728  33.236  53.807
36582W        W28506  25.729  12.732  49.669
36583W        W28507  20.738  25.208  52.882
36584W        W28508   5.275  46.192  52.876
36585W        W28509  14.761   2.780  52.870
36586W        W28510  30.243   2.752  52.410
36587W        W28511  41.702  46.675  51.072
36588W        W28512   0.271  21.225  52.879
36589W        W28513  48.208  13.235  53.801
36590W        W28514  12.745  38.231  51.535
36591W        W28515   0.760  32.739  50.592
36592W        W28516  27.211  27.225  53.788
36593W        W28517   9.774  28.743  50.137
36594W        W28518   2.267  21.244  49.705
36595W        W28519  48.190   7.278  50.610
36596W        W28520  19.722  25.726  52.424
36597W        W28521   3.773   4.746  53.327
36598W        W28522  25.211  38.729  50.620
36599W        W28523  32.733  21.229  50.578
36600W        W28524  13.262  44.186  51.036
36601W        W28525  45.188   9.240  51.535
36602W        W28526  11.275  37.698  50.610
36603W        W28527  24.256   6.244  52.878
36604W        W28528   0.261  35.711  51.504
36605W        W28529  35.740  16.739  52.870
36606W        W28530  19.733  16.273  52.884
36607W        W28531  11.252  17.730  50.130
36608W        W28532   5.242  11.766  53.320
36609W        W28533  16.257  16.227  50.162
36610W        W28534  30.228  19.766  52.897
36611W        W28535  26.707  45.191  53.806
36612W        W28536   7.756   3.761  50.161
36613W        W28537  12.736   5.763  53.807
36614W        W28538  41.692  41.695  51.987
36615W        W28539  41.694   5.774  50.154
36616W        W28540   2.763  46.199  50.588
36617W        W28541  46.716  37.196  53.816
36618W        W28542  13.741  20.726  52.865
36619W        W28543  27.242  19.738  49.669
36620W        W28544  24.753   4.266  51.050
36621W        W28545  36.214   6.245  53.347
36622W        W28546  47.721  31.703  53.782
36623W        W28547  16.252  12.268  52.884
36624W        W28548  28.232  12.770  49.686
36625W        W28549  30.245  30.747  52.434
36626W        W28550  32.714  25.254  50.147
36627W        W28551  46.199   7.272  51.987
36628W        W28552   3.769  26.249  52.905
36629W        W28553  10.253   3.249  53.349
36630W        W28554  48.203  13.258  50.165
36631W        W28555  19.726   3.775  50.580
36632W        W28556   1.796  45.217  51.075
36633W        W28557  12.255  44.725  53.357
36634W        W28558  11.756  37.226  50.581
36635W        W28559  35.237  38.696  53.786
36636W        W28560  21.732  32.732  50.621
36637W        W28561   7.759  20.735  51.073
36638W        W28562  33.208  11.250  51.503
36639W        W28563   0.758  29.233  51.048
36640W        W28564  33.705  10.255  53.316
36641W        W28565  32.201  46.687  53.327
36642W        W28566   7.774   7.280  51.519
36643W        W28567  21.256   7.786  53.338
36644W        W28568  26.713  47.671  52.900
36645W        W28569  11.745  30.729  52.438
36646W        W28570  13.744  33.732  52.422
36647W        W28571  19.765  12.750  49.693
36648W        W28572  24.233   5.773  51.034
36649W        W28573   8.259   9.249  51.054
36650W        W28574  11.264   7.768  51.502
36651W        W28575  34.708  18.737  51.972
36652W        W28576  47.179   9.269  50.610
36653W        W28577  45.700  27.748  50.598
36654W        W28578  39.198  35.228  53.778
36655W        W28579  47.688  12.245  51.519
36656W        W28580  42.715  13.736  51.039
36657W        W28581  17.768  12.263  49.672
36658W        W28582   4.782  30.713  50.604
36659W        W28583  12.274  30.237  50.133
36660W        W28584   9.744  45.180  52.879
36661W        W28585  45.179   3.279  52.892
36662W        W28586  46.705  12.232  51.054
36663W        W28587  33.704  19.746  51.500
36664W        W28588  14.729  24.751  52.435
36665W        W28589  36.224  22.718  51.060
36666W        W28590  10.241  35.222  52.869
36667W        W28591  26.246  27.219  51.056
36668W        W28592  10.734  19.728  53.341
36669W        W28593  19.222   3.782  53.324
36670W        W28594  39.216   9.253  51.965
36671W        W28595   2.260  29.215  52.421
36672W        W28596  25.245  16.247  50.589
36673W        W28597   1.754  30.236  49.697
36674W        W28598  14.740  31.743  49.677
36675W        W28599  17.725  25.221  53.788
36676W        W28600  41.689  16.252  51.989
36677W        W28601  11.240  37.231  50.585
36678W        W28602  47.185  22.236  51.038
36679W        W28603  47.196  11.268  53.812
36680W        W28604   1.786  35.702  50.600
36681W        W28605  40.228  48.188  51.532
36682W        W28606  28.244  34.197  53.358
36683W        W28607  11.279  24.714  51.076
36684W        W28608  11.768  19.267  51.957
36685W        W28609  15.259  32.696  52.895
36686W        W28610  13.735  45.723  53.784
36687W        W28611  11.768  36.690  51.507
36688W        W28612  13.740  40.213  53.788
36689W        W28613  21.730  38.710  49.685
36690W        W28614  26.249  13.749  52.901
36691W        W28615  12.253  36.235  52.891
36692W        W28616  15.273   3.263  50.585
36693W        W28617  32.220  25.209  51.073
36694W        W28618  25.233   2.783  49.675
36695W        W28619  37.216  35.226  51.036
36696W        W28620  22.720  27.253  51.039
36697W        W28621  45.708  44.703  50.581
36698W        W28622  34.219   2.254  49.702
36699W        W28623  37.238  40.213  51.079
36700W        W28624  47.188  40.213  52.430
36701W        W28625  21.235  31.233  50.148
36702W        W28626  46.718  37.219  52.891
36703W        W28627   2.762  11.778  50.607
36704W        W28628  24.723  41.191  52.404
36705W        W28629  33.702  15.270  49.708
36706W        W28630   4.776  17.267  50.140
36707W        W28631   0.777   0.277  49.688
36708W        W28632  14.237   0.254  50.136
36709W        W28633  30.246   6.273  52.426
36710W        W28634  28.709  10.249  50.588
36711W        W28635  10.261   5.278  52.431
36712W        W28636   2.754  44.694  51.520
36713W        W28637  25.723   3.752  52.423
36714W        W28638   4.273  29.749  53.810
36715W        W28639  12.740  37.698  52.419
36716W        W28640  43.678  15.736  53.806
36717W        W28641  44.677  14.251  49.705
36718W        W28642  15.237  38.734  53.805
36719W        W28643   7.284  48.186  53.322
36720W        W28644  43.682  23.755  51.949
36721W        W28645  18.721  40.728  51.055
36722W        W28646   9.253  13.737  52.897
36723W        W28647  28.713  27.248  50.607
36724W        W28648  40.227  30.248  49.665
36725W        W28649  40.694  15.247  51.524
36726W        W28650   7.782  34.231  52.898
36727W        W28651  43.182   0.773  53.802
36728W        W28652  43.192  16.252  50.610
36729W        W28653   8.276   5.745  51.045
36730W        W28654  47.197  15.729  51.514
36731W        W28655   6.740   8.771  51.057
36732W        W28656  13.247   0.788  52.438
36733W        W28657  14.268  18.265  53.352
36734W        W28658  15.234  16.748  51.505
36735W        W28659  28.725   6.269  49.691
36736W        W28660  41.687  23.711  51.513
36737W        W28661  32.214  31.745  52.885
36738W        W28662  35.206   5.789  50.136
36739W        W28663  19.739  24.740  50.125
36740W        W28664  25.750  10.774  49.681
36741W        W28665   1.758   3.291  52.441
36742W        W28666  13.260  46.224  49.673
36743W        W28667  12.768  11.243  51.069
36744W        W28668  42.695  33.204  51.491
36745W        W28669  12.245  22.722  51.948
36746W        W28670  37.731  42.714  51.058
36747W        W28671  43.700  12.767  51.523
36748W        W28672  41.687   1.761  51.974
36749W        W28673   0.278  37.211  51.504
36750W        W28674   3.759   9.750  50.155
36751W        W28675  39.699   6.743  50.592
36752W        W28676  12.244   5.745  53.797
36753W        W28677  41.219  40.707  51.959
36754W        W28678  46.684   0.755  51.045
36755W        W28679  36.218   6.755  51.505
36756W        W28680  21.757  37.232  53.817
36757W        W28681  40.719  23.716  49.688
36758W        W28682  14.228  40.695  50.581
36759W        W28683  33.722  41.684  52.887
36760W        W28684  15.226  15.736  53.358
36761W        W28685  28.720   8.743  51.505
36762W        W28686  35.233  46.689  53.788
36763W        W28687  17.267   2.273  50.619
36764W        W28688  12.256  23.717  51.952
36765W        W28689  29.222  12.238  53.795
36766W        W28690  30.727  31.741  51.970
36767W        W28691  39.220  18.747  53.785
36768W        W28692  13.739  26.209  49.687
36769W        W28693  37.219  14.730  52.415
36770W        W28694   4.781  38.725  53.792
36771W        W28695  11.260  48.194  50.621
36772W        W28696   5.284  40.196  50.165
36773W        W28697  41.193  23.228  51.061
36774W        W28698   6.748  21.730  52.424
36775W        W28699  11.255  26.724  51.048
36776W        W28700  23.233   6.758  50.579
36777W        W28701  44.701  41.230  52.871
36778W        W28702  43.727   6.775  51.517
36779W        W28703   1.778  22.739  50.159
36780W        W28704   9.238  35.198  51.986
36781W        W28705  30.730   7.266  49.685
36782W        W28706  40.695  36.200  51.505
36783W        W28707  47.201  36.203  52.878
36784W        W28708  14.763  14.764  51.045
36785W        W28709  11.772  17.734  53.773
36786W        W28710  27.749  13.738  51.526
36787W        W28711  25.734  43.226  53.318
36788W        W28712  12.750  14.753  51.989
36789W        W28713  28.252  33.207  53.781
36790W        W28714  38.688  29.246  51.977
36791W        W28715  21.735  38.713  52.882
36792W        W28716  39.192  40.718  50.166
36793W        W28717  44.691  21.256  52.420
36794W        W28718  15.246   2.274  49.699
36795W        W28719  44.691  20.231  51.039
36796W        W28720  38.698  15.255  49.704
36797W        W28721  20.227  34.238  51.050
36798W        W28722   7.272   0.795  49.688
36799W        W28723  34.732  23.217  50.602
36800W        W28724  27.739  30.730  53.807
36801W        W28725   8.782  26.224  49.669
36802W        W28726  15.229  31.710  53.353
36803W        W28727   9.247  34.238  51.499
36804W        W28728  10.248  30.746  52.860
36805W        W28729  43.723   9.775  51.494
36806W        W28730  44.710  34.199  52.425
36807W        W28731  16.226  12.254  53.353
36808W        W28732  38.703   6.250  51.492
36809W        W28733   6.250   9.252  53.340
36810W        W28734  31.713  18.237  53.320
36811W        W28735  13.276  26.726  53.348
36812W        W28736  20.220  14.231  53.329
36813W        W28737  15.746   3.760  49.681
36814W        W28738  16.748  35.225  53.342
36815W        W28739  27.716   4.791  51.965
36816W        W28740  19.246  27.229  51.980
36817W        W28741  47.207   5.284  51.055
36818W        W28742  19.257   9.262  50.155
36819W        W28743  11.736  44.714  51.035
36820W        W28744  19.235  43.725  50.159
36821W        W28745  38.236  11.767  50.146
36822W        W28746  24.227  18.265  50.618
36823W        W28747  12.256  18.727  50.588
36824W        W28748  17.755  18.750  52.891
36825W        W28749  18.750  21.234  51.523
36826W        W28750  35.736   2.278  52.904
36827W        W28751  44.183  35.698  50.604
36828W        W28752  35.220  26.755  53.802
36829W        W28753  15.243   5.243  52.414
36830W        W28754  27.742  21.763  51.045
36831W        W28755  21.226  29.219  52.413
36832W        W28756  12.736  19.251  53.785
36833W        W28757  41.214   0.775  53.322
36834W        W28758  41.684  12.244  52.883
36835W        W28759  26.256  20.753  50.134
36836W        W28760  38.233  16.731  52.419
36837W        W28761  19.724   2.748  52.861
36838W        W28762   5.748  44.719  53.797
36839W        W28763  37.728  21.254  50.144
36840W        W28764  11.777  25.750  52.893
36841W        W28765  25.713  32.738  49.708
36842W        W28766   6.279  46.689  51.073
36843W        W28767  41.726   0.267  51.058
36844W        W28768   7.757  10.750  50.594
36845W        W28769   7.247  47.689  51.523
36846W        W28770   4.782   6.762  50.129
36847W        W28771  16.765  10.257  51.074
36848W        W28772  24.251  10.243  51.492
36849W        W28773  26.236  27.746  52.435
36850W        W28774  44.194  39.220  52.866
36851W        W28775  31.703   6.775  51.040
36852W        W28776  40.193  11.744  49.673
36853W        W28777   7.271  24.717  51.991
36854W        W28778  35.225  34.194  53.354
36855W        W28779  40.726  35.694  51.965
36856W        W28780  39.703  10.270  51.498
36857W        W28781  25.716   1.292  53.817
36858W        W28782  14.769   6.788  53.788
36859W        W28783  38.204   9.252  51.493
36860W        W28784  40.718  40.185  53.335
36861W        W28785  44.702   5.761  53.777
36862W        W28786  33.209  34.726  52.423
36863W        W28787   6.263  27.234  51.952
36864W        W28788  22.739  26.255  49.670
36865W        W28789  11.246  11.270  53.807
36866W        W28790  18.725  21.759  52.868
36867W        W28791   9.260  10.774  52.893
36868W        W28792  40.684  39.730  51.985
36869W        W28793  35.692  34.706  51.040
36870W        W28794   0.751  25.752  50.140
36871W        W28795  48.213   6.247  51.961
36872W        W28796  38.730  33.225  52.879
36873W        W28797   1.288  26.230  51.983
36874W        W28798  17.240  36.209  51.501
36875W        W28799  39.712  45.216  53.347
36876W        W28800  25.255   7.750  50.586
36877W        W28801  11.756  10.732  50.601
36878W        W28802  37.703  38.195  51.970
36879W        W28803  22.244  44.719  52.860
36880W        W28804  11.268  41.701  50.140
36881W        W28805  34.728   8.765  49.703
36882W        W28806  39.717  19.248  49.691
36883W        W28807  34.722  28.220  52.876
36884W        W28808  37.724   1.294  51.508
36885W        W28809  37.216   5.273  51.990
36886W        W28810  10.278   3.760  50.605
36887W        W28811  38.199  15.753  53.815
36888W        W28812  20.240  19.767  49.675
36889W        W28813   2.776  10.759  53.776
36890W        W28814  34.732  30.214  53.357
36891W        W28815  12.756  43.227  51.982
36892W        W28816  41.684  27.212  52.440
36893W        W28817  33.703  43.705  50.599
36894W        W28818  43.685  21.225  52.871
36895W        W28819  26.709  27.714  52.861
36896W        W28820  13.751  34.720  53.815
36897W        W28821  31.226  19.748  51.519
36898W        W28822  28.239  46.191  51.955
36899W        W28823  19.737  42.693  51.535
36900W        W28824  32.706   0.261  53.320
36901W        W28825  45.207  24.730  51.070
36902W        W28826  33.229  43.192  51.972
36903W        W28827  29.712  39.723  53.346
36904W        W28828  38.690  22.259  49.668
36905W        W28829  22.219  24.255  51.038
36906W        W28830  46.681   6.285  51.516
36907W        W28831  15.227  10.740  50.153
36908W        W28832  30.209   3.780  53.322
36909W        W28833  37.702  46.206  50.139
36910W        W28834  47.720   5.289  50.124
36911W        W28835  26.250  15.753  53.342
36912W        W28836  21.761  48.220  52.859
36913W        W28837  25.744  25.222  52.441
36914W        W28838  35.194  48.183  53.784
36915W        W28839  41.705  21.763  49.669
36916W        W28840   7.742  14.261  50.609
36917W        W28841   7.745  41.210  51.989
36918W        W28842  22.262  17.768  53.779
36919W        W28843  27.243  42.217  53.780
36920W        W28844  10.266   4.291  53.816
36921W        W28845   9.262  10.277  50.615
36922W        W28846  36.694  16.238  51.949
36923W        W28847  18.249  11.762  50.591
36924W        W28848  19.236  26.750  52.447
36925W        W28849  46.222  16.260  53.797
36926W        W28850  13.263  40.209  50.586
36927W        W28851  29.720  24.728  50.135
36928W        W28852  48.177  22.237  52.905
36929W        W28853  38.694  30.239  50.121
36930W        W28854  17.236  18.734  53.342
36931W        W28855  35.726  34.227  51.066
36932W        W28856  44.193   6.741  51.516
36933W        W28857  10.748  29.240  51.522
36934W        W28858   1.266  22.715  52.417
36935W        W28859  40.726  31.245  51.518
36936W        W28860  31.215  26.220  52.871
36937W        W28861   7.287   2.779  50.586
36938W        W28862  34.226  34.221  50.159
36939W        W28863   9.757  31.218  51.983
36940W        W28864  11.768  34.199  51.491
36941W        W28865   8.286  31.723  51.968
36942W        W28866  36.734  15.756  53.788
36943W        W28867  32.745  35.233  52.869
36944W        W28868  33.241  24.227  52.879
36945W        W28869   4.254   6.750  49.671
36946W        W28870  40.725  27.709  51.497
36947W        W28871  44.693  32.238  51.533
36948W        W28872   5.768  40.198  52.443
36949W        W28873  44.200  16.251  51.512
36950W        W28874  35.225  16.232  51.982
36951W        W28875  14.730  15.766  52.863
36952W        W28876  32.197  38.225  50.617
36953W        W28877  11.258  19.223  52.880
36954W        W28878  37.731  14.240  51.506
36955W        W28879   7.754  25.235  53.779
36956W        W28880   9.247  26.215  50.140
36957W        W28881  41.681  16.243  53.338
36958W        W28882  31.746   4.271  52.863
36959W        W28883  11.254  25.236  50.594
36960W        W28884   6.751   7.245  52.446
36961W        W28885  11.735   1.758  50.153
36962W        W28886  32.230  35.734  51.984
36963W        W28887   1.264   7.754  52.894
36964W        W28888  10.263  41.699  51.525
36965W        W28889  42.191  40.194  52.444
36966W        W28890   1.772   4.777  51.063
36967W        W28891   7.253  16.723  53.814
36968W        W28892   2.253  30.236  52.894
36969W        W28893   1.779  33.229  49.705
36970W        W28894  14.727  12.778  50.599
36971W        W28895   0.759   5.756  51.960
36972W        W28896  45.693  15.763  51.955
36973W        W28897  46.691  21.742  51.061
36974W        W28898  28.740  18.261  51.518
36975W        W28899  45.702  11.255  53.774
36976W        W28900  18.221  35.198  51.503
36977W        W28901  38.195  41.204  49.693
36978W        W28902  16.268  21.243  53.814
36979W        W28903  43.207  33.733  52.866
36980W        W28904   6.285  43.215  53.318
36981W        W28905  11.256  22.245  52.883
36982W        W28906  36.204  29.243  52.881
36983W        W28907  21.755  19.243  51.965
36984W        W28908  18.755  37.197  51.078
36985W        W28909  24.220   3.252  53.773
36986W        W28910   1.259   5.265  53.795
36987W        W28911  34.230   2.759  52.416
36988W        W28912  39.707  44.699  50.589
36989W        W28913  43.720  21.248  51.506
36990W        W28914  38.206   6.258  50.615
36991W        W28915   7.257   5.247  52.434
36992W        W28916  39.691  16.767  51.528
36993W        W28917  34.204  26.728  53.806
36994W        W28918   6.746  24.238  50.616
36995W        W28919   5.774  45.194  51.963
36996W        W28920  11.248  32.198  49.693
36997W        W28921  41.212  27.250  51.535
36998W        W28922  29.204  25.257  49.710
36999W        W28923  29.223  36.737  51.976
37000W        W28924  11.246  47.698  51.971
37001W        W28925  35.206  42.701  51.043
37002W        W28926   4.279  16.240  53.354
37003W        W28927  15.752  45.687  51.074
37004W        W28928  36.696  10.265  50.587
37005W        W28929  22.230  28.219  50.160
37006W        W28930  28.233   5.789  50.132
37007W        W28931  41.206  44.706  52.433
37008W        W28932  13.733  13.260  50.133
37009W        W28933  28.239  16.252  49.683
37010W        W28934  41.700   9.263  49.685
37011W        W28935   8.280  38.705  52.899
37012W        W28936  23.746  26.717  51.953
37013W        W28937  39.687   3.265  53.345
37014W        W28938  34.729  34.210  52.870
37015W        W28939  26.711  31.225  49.677
37016W        W28940  36.196   5.784  52.425
37017W        W28941   2.282  41.694  53.320
37018W        W28942  43.682  45.220  53.790
37019W        W28943  35.697  47.679  50.588
37020W        W28944  24.757   0.765  51.516
37021W        W28945  10.769  29.706  51.036
37022W        W28946  10.252   3.286  52.443
37023W        W28947  32.235  12.250  51.534
37024W        W28948  46.710  35.193  52.422
37025W        W28949  44.224  27.731  53.779
37026W        W28950   9.752  38.191  51.988
37027W        W28951  29.718  17.248  53.360
37028W        W28952  18.263  24.249  53.334
37029W        W28953  13.244  40.201  52.420
37030W        W28954  37.231  41.690  49.664
37031W        W28955  17.254  19.723  52.867
37032W        W28956  33.206  15.254  52.879
37033W        W28957   4.248  32.705  53.777
37034W        W28958   8.253  12.740  49.668
37035W        W28959  10.234  40.221  53.323
37036W        W28960  21.732  46.713  52.870
37037W        W28961   9.779   4.778  51.057
37038W        W28962  44.182  26.256  51.530
37039W        W28963  36.715  36.191  50.136
37040W        W28964  22.741  46.720  50.159
37041W        W28965  15.255  37.712  50.162
37042W        W28966   6.753  35.199  53.345
37043W        W28967  38.717  19.759  49.682
37044W        W28968  35.195   7.274  50.593
37045W        W28969  14.752  26.737  53.811
37046W        W28970  28.722  29.723  50.143
37047W        W28971  30.200  12.760  52.862
37048W        W28972   0.297  47.176  51.043
37049W        W28973  20.759  27.749  50.613
37050W        W28974  46.207  20.759  50.140
37051W        W28975  38.736  20.257  53.783
37052W        W28976  11.280  39.232  50.147
37053W        W28977   9.239  39.221  53.796
37054W        W28978   2.762   5.756  52.433
37055W        W28979  43.213  19.767  51.041
37056W        W28980  24.250  16.235  50.156
37057W        W28981  12.278  41.188  53.338
37058W        W28982  29.744  20.225  53.790
37059W        W28983  22.757  41.717  52.899
37060W        W28984  33.200  24.224  51.065
37061W        W28985  28.742  33.699  49.689
37062W        W28986   4.274  16.241  51.530
37063W        W28987  20.732  47.716  53.339
37064W        W28988  40.222  47.702  51.957
37065W        W28989  28.249  21.252  49.704
37066W        W28990  38.230  19.233  52.881
37067W        W28991  32.710  42.202  52.877
37068W        W28992   5.282  27.753  50.577
37069W        W28993  45.222  11.240  52.877
37070W        W28994  34.201  29.210  52.424
37071W        W28995  47.685   9.244  52.419
37072W        W28996   5.774  11.269  53.316
37073W        W28997  43.727  10.774  52.441
37074W        W28998  36.238  25.738  53.358
37075W        W28999  18.257  19.265  53.347
37076W        W29000  44.178  44.212  52.438
37077W        W29001  17.260  31.705  52.869
37078W        W29002  15.272  36.719  53.351
37079W        W29003  10.761   1.784  52.443
37080W        W29004  44.221  13.760  51.492
37081W        W29005  21.741  30.206  50.131
37082W        W29006  37.227   4.275  50.141
37083W        W29007  37.736   1.265  49.692
37084W        W29008  20.765  24.251  52.872
37085W        W29009   9.756   5.752  53.335
37086W        W29010  27.714  45.213  51.070
37087W        W29011   4.783  39.708  51.521
37088W        W29012   5.757  18.722  50.611
37089W        W29013  18.245  13.278  52.860
37090W        W29014  14.259  20.717  51.519
37091W        W29015  27.239  31.726  53.810
37092W        W29016  23.233   3.268  53.773
37093W        W29017  34.729  18.254  53.814
37094W        W29018  41.231  24.259  51.513
37095W        W29019   2.758  33.702  53.816
37096W        W29020   0.758  46.686  50.151
37097W        W29021  34.198  25.746  49.678
37098W        W29022  11.261   3.289  51.528
37099W        W29023  29.737  29.244  51.499
37100W        W29024   9.751   4.265  52.898
37101W        W29025  47.203  28.730  51.976
37102W        W29026   9.268   8.747  50.147
37103W        W29027  26.221  39.218  51.522
37104W        W29028   9.779   1.286  50.593
37105W        W29029  30.238  24.758  51.950
37106W        W29030  31.211  27.749  51.063
37107W        W29031  29.716  20.251  53.332
37108W        W29032   2.770  22.220  51.957
37109W        W29033  20.758  44.724  50.148
37110W        W29034  20.756  48.220  52.441
37111W        W29035  44.194   6.753  50.126
37112W        W29036  18.243  31.727  52.426
37113W        W29037   8.764  31.239  53.776
37114W        W29038  16.750  21.728  53.336
37115W        W29039  29.218  47.206  50.133
37116W        W29040  41.710  45.691  50.153
37117W        W29041  36.195  13.261  53.321
37118W        W29042  47.696  44.184  53.354
37119W        W29043  36.705   1.764  51.511
37120W        W29044   9.760  44.215  53.357
37121W        W29045  27.740  17.259  51.490
37122W        W29046  42.680   4.286  50.595
37123W        W29047  41.192  27.718  50.143
37124W        W29048   9.255  13.741  53.816
37125W        W29049  37.737   4.777  52.871
37126W        W29050  45.681  40.220  51.961
37127W        W29051  26.722  31.707  52.428
37128W        W29052  12.760  22.231  52.411
37129W        W29053  46.182  38.700  51.526
37130W        W29054   3.771  44.209  53.798
37131W        W29055  48.177   1.748  50.145
37132W        W29056  38.234  46.677  51.491
37133W        W29057  47.673  42.683  51.978
37134W        W29058  21.752   0.251  51.505
37135W        W29059  23.758  27.245  51.051
37136W        W29060  31.243  31.713  52.436
37137W        W29061  44.210  46.214  51.073
37138W        W29062  18.741   3.793  50.595
37139W        W29063  31.221  39.186  51.058
37140W        W29064   2.792  30.233  52.408
37141W        W29065   3.263  45.704  49.696
37142W        W29066  42.714  31.717  51.051
37143W        W29067   5.278  40.191  53.349
37144W        W29068  39.730  37.207  52.422
37145W        W29069  37.195   8.759  50.619
37146W        W29070  26.239  32.698  53.783
37147W        W29071   3.273  20.230  50.139
37148W        W29072  35.228  33.231  52.403
37149W        W29073  20.764  47.187  50.594
37150W        W29074   8.745   7.764  52.424
37151W        W29075  33.729  20.251  50.135
37152W        W29076  48.215  47.219  53.804
37153W        W29077  28.247   6.272  51.055
37154W        W29078  29.212  46.208  50.162
37155W        W29079   1.271  30.739  52.422
37156W        W29080  15.225   8.268  53.781
37157W        W29081  37.220  10.269  51.074
37158W        W29082  22.736  17.261  50.603
37159W        W29083  36.727  13.247  51.520
37160W        W29084  18.748  29.228  50.620
37161W        W29085   5.283  46.220  51.984
37162W        W29086  28.747  30.222  50.154
37163W        W29087  34.235  32.236  50.162
37164W        W29088  30.745   3.778  49.668
37165W        W29089   9.762  43.222  51.513
37166W        W29090  10.760   2.282  50.162
37167W        W29091  19.747  29.703  52.884
37168W        W29092   8.755  31.737  49.705
37169W        W29093  48.180  41.211  53.814
37170W        W29094  45.718   3.784  51.500
37171W        W29095  30.218  19.229  52.877
37172W        W29096  13.272  27.212  51.980
37173W        W29097  18.739  13.266  52.893
37174W        W29098  12.246  31.704  52.448
37175W        W29099  36.226  19.248  52.416
37176W        W29100  33.196  19.248  51.520
37177W        W29101  29.213   0.287  53.318
37178W        W29102  39.726   7.286  49.706
37179W        W29103  41.219  43.724  52.426
37180W        W29104  16.749  46.221  49.675
37181W        W29105  20.740  10.243  51.952
37182W        W29106  31.246  28.217  52.863
37183W        W29107  26.250   1.254  53.813
37184W        W29108  39.701   4.758  49.700
37185W        W29109  18.222  39.718  53.790
37186W        W29110  19.247  11.741  52.413
37187W        W29111  43.720  46.695  51.533
37188W        W29112  29.246  42.725  51.506
37189W        W29113   8.246  15.725  53.343
37190W        W29114  11.765  13.751  53.780
37191W        W29115  26.715  10.280  50.591
37192W        W29116   3.754  28.745  51.971
37193W        W29117   1.292  18.250  50.134
37194W        W29118  37.706  20.251  50.577
37195W        W29119   8.271  23.212  51.059
37196W        W29120  17.727  15.260  50.133
37197W        W29121  18.728   2.275  53.778
37198W        W29122   9.248   6.776  52.872
37199W        W29123   7.771  35.193  51.959
37200W        W29124  24.219  25.249  49.685
37201W        W29125  39.230  45.210  53.330
37202W        W29126  23.241   8.748  51.034
37203W        W29127  17.730  46.180  52.862
37204W        W29128  10.267  15.271  51.971
37205W        W29129  41.187  46.212  53.319
37206W        W29130  45.706  36.728  51.059
37207W        W29131   5.288   5.743  51.970
37208W        W29132  20.755   8.739  51.950
37209W        W29133  47.190  30.740  53.784
37210W        W29134  38.693  20.727  51.978
37211W        W29135   5.248  10.263  53.355
37212W        W29136   2.783   4.254  51.961
37213W        W29137  19.760  10.268  50.140
37214W        W29138  31.705  31.744  53.357
37215W        W29139   1.267  14.746  53.355
37216W        W29140   9.240  41.703  51.947
37217W        W29141  26.244   1.252  49.664
37218W        W29142  44.219  44.709  51.035
37219W        W29143  10.251  47.178  49.684
37220W        W29144  15.756  45.707  52.408
37221W        W29145  30.237  10.254  51.068
37222W        W29146  26.210  10.752  51.966
37223W        W29147  37.715  17.246  51.511
37224W        W29148   5.774  28.743  49.704
37225W        W29149  29.205  32.696  50.591
37226W        W29150  38.189  10.753  50.123
37227W        W29151  44.712  46.176  53.817
37228W        W29152  30.699  31.699  50.149
37229W        W29153  46.220  39.214  51.498
37230W        W29154  40.227  31.207  52.439
37231W        W29155  20.221  15.751  53.804
37232W        W29156  32.221  41.200  52.415
37233W        W29157  12.250  39.707  53.784
37234W        W29158  26.746  35.222  52.419
37235W        W29159  18.754  36.699  53.788
37236W        W29160  46.194   8.276  53.321
37237W        W29161  39.689  45.683  49.682
37238W        W29162  21.232  40.224  51.075
37239W        W29163   3.751  15.264  49.700
37240W        W29164  46.705   9.250  51.504
37241W        W29165  16.267  31.227  50.126
37242W        W29166  22.238  15.230  51.037
37243W        W29167  12.255  36.718  49.697
37244W        W29168  44.681  23.723  51.984
37245W        W29169  17.225  17.244  50.130
37246W        W29170  37.734  16.761  50.580
37247W        W29171  12.760  21.731  53.812
37248W        W29172  17.739   9.245  52.408
37249W        W29173   0.786  18.755  49.664
37250W        W29174  13.739  29.741  49.683
37251W        W29175  13.253  39.210  51.070
37252W        W29176  13.278   1.267  50.148
37253W        W29177  14.232  36.735  53.797
37254W        W29178  15.738  29.705  50.610
37255W        W29179   4.257  16.741  53.324
37256W        W29180  39.717   9.237  51.517
37257W        W29181   9.765  28.207  51.494
37258W        W29182  31.736   4.786  52.865
37259W        W29183  14.772  22.215  53.802
37260W        W29184  16.735  16.741  50.152
37261W        W29185  16.757   9.241  50.139
37262W        W29186  26.215  41.681  53.778
37263W        W29187  20.217   1.269  52.862
37264W        W29188   7.244  17.736  51.516
37265W        W29189   8.249  19.732  53.782
37266W        W29190  11.773  27.738  49.709
37267W        W29191   7.744  47.208  52.880
37268W        W29192   1.290  23.759  51.514
37269W        W29193   3.258  40.196  50.128
37270W        W29194  22.746  27.733  52.428
37271W        W29195  42.690  21.744  51.963
37272W        W29196  33.730  41.216  53.345
37273W        W29197  23.743  20.257  53.804
37274W        W29198   0.284  42.703  53.813
37275W        W29199  28.213  11.748  52.442
37276W        W29200  23.736  41.188  53.324
37277W        W29201  42.219   9.248  50.158
37278W        W29202  31.740  14.231  52.894
37279W        W29203  12.757  15.736  50.135
37280W        W29204   2.773  23.718  52.434
37281W        W29205  27.253   1.766  53.812
37282W        W29206  42.722  18.724  51.043
37283W        W29207   2.273  22.238  51.983
37284W        W29208  15.244  11.244  51.950
37285W        W29209  28.250  48.195  50.583
37286W        W29210  29.749  11.237  51.975
37287W        W29211  44.685  19.741  51.512
37288W        W29212  46.676  24.758  50.149
37289W        W29213  13.775   2.282  49.671
37290W        W29214  29.224  16.247  52.414
37291W        W29215  16.766  46.715  51.984
37292W        W29216   7.287  31.742  52.423
37293W        W29217   8.751  43.717  51.041
37294W        W29218  28.251  26.248  50.151
37295W        W29219  42.712  42.702  53.785
37296W        W29220   4.254  28.232  51.513
37297W        W29221  29.744  43.185  51.042
37298W        W29222  45.689  43.224  49.673
37299W        W29223  11.277   6.250  53.348
37300W        W29224  35.708  43.723  51.968
37301W        W29225  17.249  20.266  51.979
37302W        W29226  41.687  22.752  53.318
37303W        W29227  45.724  24.733  53.809
37304W        W29228  36.709  22.220  51.983
37305W        W29229  24.231  41.711  52.878
37306W        W29230  21.716  33.720  53.783
37307W        W29231  27.210  40.720  53.332
37308W        W29232   6.250  45.212  52.863
37309W        W29233   2.762  40.731  53.809
37310W        W29234  42.195  22.725  50.622
37311W        W29235  21.718  25.729  50.596
37312W        W29236   1.796  17.246  50.600
37313W        W29237  46.684  26.730  52.864
37314W        W29238  41.195  37.694  51.511
37315W        W29239  23.745  12.768  51.049
37316W        W29240  27.713  13.251  52.428
37317W        W29241  43.702   1.782  51.048
37318W        W29242  17.254   1.749  51.953
37319W        W29243  14.246  11.247  51.057
37320W        W29244  14.730  37.726  51.513
37321W        W29245  28.712  13.237  51.073
37322W        W29246  34.221  39.693  53.318
37323W        W29247   7.760   8.766  51.959
37324W        W29248  39.196  17.269  53.784
37325W        W29249  42.708  20.735  51.515
37326W        W29250  28.709  46.683  51.052
37327W        W29251  33.707  35.705  52.414
37328W        W29252   4.257  37.706  50.129
37329W        W29253   0.753  23.715  50.603
37330W        W29254  24.743  33.735  49.704
37331W        W29255  19.260  45.213  50.581
37332W        W29256  15.742   9.758  52.876
37333W        W29257  22.740  18.251  50.121
37334W        W29258  15.230  13.252  50.152
37335W        W29259   3.254  14.766  51.967
37336W        W29260  31.200   7.239  51.514
37337W        W29261  46.712   4.270  52.888
37338W        W29262  22.233  29.705  52.424
37339W        W29263  39.186  26.255  51.052
37340W        W29264  19.753   9.263  51.513
37341W        W29265   6.279  46.682  53.349
37342W        W29266  24.257   1.783  50.161
37343W        W29267   5.743  12.234  50.142
37344W        W29268  26.256   1.786  53.337
37345W        W29269  13.776  29.248  53.326
37346W        W29270   7.284  13.773  53.778
37347W        W29271  30.246  28.748  50.621
37348W        W29272  44.711  24.738  51.511
37349W        W29273  15.753  14.274  50.147
37350W        W29274  19.763   6.281  51.508
37351W        W29275  31.199  44.690  53.808
37352W        W29276   2.273  24.255  49.700
37353W        W29277   0.788  33.728  50.154
37354W        W29278  25.236  16.250  52.421
37355W        W29279  37.720   2.764  50.603
37356W        W29280  16.770  22.734  50.620
37357W        W29281  26.711  31.233  53.323
37358W        W29282   1.793  28.230  51.978
37359W        W29283  11.262  27.718  53.329
37360W        W29284  46.180  39.704  52.444
37361W        W29285  27.242  32.234  51.041
37362W        W29286  19.242  38.716  51.954
37363W        W29287  35.727  15.241  53.341
37364W        W29288  30.248  16.252  53.780
37365W        W29289  26.252  24.258  51.060
37366W        W29290   4.287  32.737  51.490
37367W        W29291  42.201  32.225  52.417
37368W        W29292  25.709  26.716  53.345
37369W        W29293  15.271  38.220  53.327
37370W        W29294  39.234  43.718  53.341
37371W        W29295  18.258  24.754  50.588
37372W        W29296  36.228  16.238  50.122
37373W        W29297  25.228  33.742  52.893
37374W        W29298  40.207  17.252  53.783
37375W        W29299  33.706  33.707  51.051
37376W        W29300  20.719  36.219  51.062
37377W        W29301  14.250   9.772  52.448
37378W        W29302  38.709  39.192  50.612
37379W        W29303   4.278  17.763  51.049
37380W        W29304  34.224   9.266  50.166
37381W        W29305  15.272  29.726  53.345
37382W        W29306   8.738   8.753  52.877
37383W        W29307   0.758  19.244  50.156
37384W        W29308   4.786  40.201  50.602
37385W        W29309  36.738  27.209  51.059
37386W        W29310  33.225  37.721  53.797
37387W        W29311  47.199  40.218  49.702
37388W        W29312   7.279  13.239  53.360
37389W        W29313  16.264   3.258  53.330
37390W        W29314  46.699  34.239  50.161
37391W        W29315   8.751  37.208  52.884
37392W        W29316  19.720  33.231  50.585
37393W        W29317  35.717  17.727  50.145
37394W        W29318  46.712  12.232  52.410
37395W        W29319  21.749  14.239  50.134
37396W        W29320  12.768   5.783  53.332
37397W        W29321  35.207   4.769  50.580
37398W        W29322  47.681   7.259  52.447
37399W        W29323  36.225   9.740  52.445
37400W        W29324   1.268  47.719  51.960
37401W        W29325  41.193  37.237  51.948
37402W        W29326  28.714  46.693  50.610
37403W        W29327   3.273  48.186  52.443
37404W        W29328  44.186  18.234  51.063
37405W        W29329  25.218  14.736  53.807
37406W        W29330  23.261  14.253  53.799
37407W        W29331  42.196  13.267  52.862
37408W        W29332  12.247  46.188  51.522
37409W        W29333  35.703  39.715  52.442
37410W        W29334   0.760  27.752  51.990
37411W        W29335   7.787  42.211  49.679
37412W        W29336  15.755  29.714  53.321
37413W        W29337  45.701  24.758  51.952
37414W        W29338  43.188  35.709  50.135
37415W        W29339  20.749  17.768  52.439
37416W        W29340  43.716  34.222  52.894
37417W        W29341   1.789  45.179  53.321
37418W        W29342   6.777  17.742  52.904
37419W        W29343  33.210  22.229  53.778
37420W        W29344  33.736  36.706  51.516
37421W        W29345   8.766   2.753  50.166
37422W        W29346  36.217  10.242  53.792
37423W        W29347  36.728  33.225  50.127
37424W        W29348  38.216  16.758  49.666
37425W        W29349  15.236  22.760  52.424
37426W        W29350  30.202  29.733  51.503
37427W        W29351   1.792   7.757  50.140
37428W        W29352  10.259  38.221  53.323
37429W        W29353  40.708  44.190  51.967
37430W        W29354   8.750  11.270  53.332
37431W        W29355  24.719   1.750  50.139
37432W        W29356  21.718  27.711  50.587
37433W        W29357  25.712  39.190  53.811
37434W        W29358  35.692   9.753  53.805
37435W        W29359   4.270  25.221  52.404
37436W        W29360  28.737   2.267  52.880
37437W        W29361  44.709  45.687  53.344
37438W        W29362  33.723  28.234  52.881
37439W        W29363  46.179  15.769  53.348
37440W        W29364  37.220   9.746  51.520
37441W        W29365  15.766   0.798  50.613
37442W        W29366  14.270  25.258  51.500
37443W        W29367  41.190   6.744  53.322
37444W        W29368  20.262  35.211  50.580
37445W        W29369   4.743  22.758  53.318
37446W        W29370  16.253   9.254  52.412
37447W        W29371  18.267  24.757  49.685
37448W        W29372  30.233  11.764  49.685
37449W        W29373  13.770   1.769  52.885
37450W        W29374  39.223  29.206  51.056
37451W        W29375  39.196  34.705  51.502
37452W        W29376  10.765  15.737  52.900
37453W        W29377   7.758  41.210  51.059
37454W        W29378   5.743  47.676  51.951
37455W        W29379  21.726  11.772  49.686
37456W        W29380  31.719  24.710  51.523
37457W        W29381   7.780  24.713  51.954
37458W        W29382  46.716  22.232  53.339
37459W        W29383   4.247  21.751  53.774
37460W        W29384   0.274  44.716  50.130
37461W        W29385  44.697  13.251  50.123
37462W        W29386  26.217  16.223  50.153
37463W        W29387  16.267  30.248  52.445
37464W        W29388  47.675  17.247  49.705
37465W        W29389  24.224  34.207  51.068
37466W        W29390   7.771  16.255  51.035
37467W        W29391   2.760  16.250  51.512
37468W        W29392  27.717  40.685  51.507
37469W        W29393  16.239  40.209  50.618
37470W        W29394  32.200  45.691  51.494
37471W        W29395  42.219   5.770  51.980
37472W        W29396  33.699  39.728  50.589
37473W        W29397  11.254   8.264  51.526
37474W        W29398  14.761  44.697  51.502
37475W        W29399  27.213  45.698  53.801
37476W        W29400  13.751  18.232  49.706
37477W        W29401  16.739  17.736  53.349
37478W        W29402  33.243  22.257  52.422
37479W        W29403  43.728   4.274  50.591
37480W        W29404  45.191  22.218  50.132
37481W        W29405  27.734  42.686  52.416
37482W        W29406  11.749  31.739  53.324
37483W        W29407  47.701  27.732  52.434
37484W        W29408  39.714  30.222  51.969
37485W        W29409  20.764   6.258  53.343
37486W        W29410   7.256  19.727  53.358
37487W        W29411  32.237  45.220  52.412
37488W        W29412  36.227   9.783  51.038
37489W        W29413   4.262  25.218  53.805
37490W        W29414  32.207  12.240  50.578
37491W        W29415  13.748  13.753  51.495
37492W        W29416  14.730  43.706  49.684
37493W        W29417  12.252  11.269  53.808
37494W        W29418  28.710  28.210  51.493
37495W        W29419   0.798  16.760  50.151
37496W        W29420   4.752  42.228  49.692
37497W        W29421   6.277  24.212  52.440
37498W        W29422  36.209  40.712  52.435
37499W        W29423   5.783  38.702  51.975
37500W        W29424  34.203  36.233  50.588
37501W        W29425  43.685  45.180  51.984
37502W        W29426  24.216  43.183  52.422
37503W        W29427   7.262   4.249  53.358
37504W        W29428  41.216  12.756  53.778
37505W        W29429  46.714  38.688  53.815
37506W        W29430  45.694  33.719  51.971
37507W        W29431  23.217  28.728  50.601
37508W        W29432   3.268  18.234  50.585
37509W        W29433  12.244  32.237  53.325
37510W        W29434  33.238   6.786  51.969
37511W        W29435  31.223  31.233  49.698
37512W        W29436   5.772   2.763  50.590
37513W        W29437  13.738  23.259  52.864
37514W        W29438   6.243  41.194  53.781
37515W        W29439   4.755  34.697  51.970
37516W        W29440  20.217   6.253  50.613
37517W        W29441  19.748  12.250  51.492
37518W        W29442  15.739  29.243  50.608
37519W        W29443  12.255  33.710  51.502
37520W        W29444   1.253   6.783  49.674
37521W        W29445  24.249  38.723  49.692
37522W        W29446   5.283   2.261  51.043
37523W        W29447   9.783   7.773  52.443
37524W        W29448  27.741  32.199  50.589
37525W        W29449  13.272  15.770  51.526
37526W        W29450  18.761  30.233  52.447
37527W        W29451  16.731  33.222  49.668
37528W        W29452   9.770  13.278  51.499
37529W        W29453  41.725  46.211  52.896
37530W        W29454  10.767  21.735  49.698
37531W        W29455  10.755  23.220  53.800
37532W        W29456  36.211  38.201  53.798
37533W        W29457  35.729   7.780  53.335
37534W        W29458   9.736  17.736  53.346
37535W        W29459   1.293   0.266  51.069
37536W        W29460   1.295  34.241  51.065
37537W        W29461  25.214   0.795  50.616
37538W        W29462  45.716  46.182  53.778
37539W        W29463  30.723  36.230  51.973
37540W        W29464  29.238  21.727  50.149
37541W        W29465  46.182  26.723  53.358
37542W        W29466  29.223  11.251  51.982
37543W        W29467  19.223  13.233  49.675
37544W        W29468  22.249  12.275  50.122
37545W        W29469   2.766  29.704  50.154
37546W        W29470   4.259   0.763  53.802
37547W        W29471   8.745  16.273  51.515
37548W        W29472  20.721  17.222  51.968
37549W        W29473  18.742  30.734  50.129
37550W        W29474   8.737   7.757  52.879
37551W        W29475   2.256  33.744  52.895
37552W        W29476  17.268  24.743  51.966
37553W        W29477  19.732  44.196  50.154
37554W        W29478  42.696  11.248  51.956
37555W        W29479  36.195  21.717  53.817
37556W        W29480  42.194  15.235  50.132
37557W        W29481  44.682  20.241  50.584
37558W        W29482  41.709   5.243  51.072
37559W        W29483  11.252  16.724  51.951
37560W        W29484   0.758  43.680  49.697
37561W        W29485  18.233  34.232  49.706
37562W        W29486  41.217  20.731  49.672
37563W        W29487   3.292  28.704  53.798
37564W        W29488   0.773  41.705  50.582
37565W        W29489  12.766   5.272  51.970
37566W        W29490   5.254  22.217  51.964
37567W        W29491  29.217  34.730  52.407
37568W        W29492  21.245  28.751  50.596
37569W        W29493  45.685  32.736  51.974
37570W        W29494  47.711  21.759  51.521
37571W        W29495  23.721  44.718  50.122
37572W        W29496  20.251  33.240  53.345
37573W        W29497   2.793  37.224  52.420
37574W        W29498  44.202  18.243  52.407
37575W        W29499  26.253   5.775  51.960
37576W        W29500  25.744   6.747  49.692
37577W        W29501  25.226  47.687  50.160
37578W        W29502  28.229  38.714  50.590
37579W        W29503   0.267  35.238  49.698
37580W        W29504  37.209  29.220  50.127
37581W        W29505   9.763  24.247  51.035
37582W        W29506  18.723  19.764  51.516
37583W        W29507   2.788  40.712  53.348
37584W        W29508   4.765  15.740  51.491
37585W        W29509  23.744  44.194  51.492
37586W        W29510  26.234  47.690  49.710
37587W        W29511  41.682   3.770  53.813
37588W        W29512  39.198  41.223  51.074
37589W        W29513   1.771  15.758  53.812
37590W        W29514  25.731  16.730  53.775
37591W        W29515  24.249  12.241  52.416
37592W        W29516  14.744  34.730  53.803
37593W        W29517  46.201   0.281  50.620
37594W        W29518  13.760  26.735  52.435
37595W        W29519  32.237   7.775  50.126
37596W        W29520  30.712  26.738  52.408
37597W        W29521   0.286  13.776  50.124
37598W        W29522  30.709  14.273  50.137
37599W        W29523  23.723  31.208  49.680
37600W        W29524  11.762  13.760  50.588
37601W        W29525  16.758  29.716  53.773
37602W        W29526  14.272  15.275  51.055
37603W        W29527  12.248  34.721  51.519
37604W        W29528  45.215  11.748  50.612
37605W        W29529  27.209  47.715  49.665
37606W        W29530  28.218   0.757  49.695
37607W        W29531   6.752  16.261  51.967
37608W        W29532  15.755  37.201  50.125
37609W        W29533  33.721  24.255  52.874
37610W        W29534  11.240  25.733  52.415
37611W        W29535  34.718  38.191  53.351
37612W        W29536  27.220   9.263  51.950
37613W        W29537  15.726   6.241  53.328
37614W        W29538  17.760  36.693  50.140
37615W        W29539  31.701  38.208  49.685
37616W        W29540  22.757  46.206  49.673
37617W        W29541  42.713  35.228  51.497
37618W        W29542  11.274  23.711  50.609
37619W        W29543  10.766  20.240  50.601
37620W        W29544  21.233   8.245  51.048
37621W        W29545  38.196   5.256  50.139
37622W        W29546  12.756  18.735  52.884
37623W        W29547   3.286  22.232  52.867
37624W        W29548   1.769   2.792  52.428
37625W        W29549  31.242  27.212  52.899
37626W        W29550  13.235  15.239  50.580
37627W        W29551  31.238  20.732  51.969
37628W        W29552  28.205  19.221  49.675
37629W        W29553   2.255   3.787  49.687
37630W        W29554  46.707  45.689  53.772
37631W        W29555  44.208  26.754  53.802
37632W        W29556  18.725  40.230  52.404
37633W        W29557   6.761  24.751  51.040
37634W        W29558  12.259  37.702  53.810
37635W        W29559  10.253  16.247  52.874
37636W        W29560  14.253  22.756  53.815
37637W        W29561   1.286   6.771  50.130
37638W        W29562  15.273  40.698  50.606
37639W        W29563  15.258  44.211  53.342
37640W        W29564  44.718  21.733  52.889
37641W        W29565  42.716  20.729  51.078
37642W        W29566   2.771  15.272  49.672
37643W        W29567  12.255   2.749  52.876
37644W        W29568  19.247  29.251  51.969
37645W        W29569  19.754  29.224  50.161
37646W        W29570   2.268  35.192  51.962
37647W        W29571  41.206  21.241  51.958
37648W        W29572  17.232   7.783  50.608
37649W        W29573  28.219  41.683  50.152
37650W        W29574  42.698   5.778  50.149
37651W        W29575   0.786  20.746  51.068
37652W        W29576  40.223  44.709  52.898
37653W        W29577  18.752  43.182  52.900
37654W        W29578   6.755  46.189  53.322
37655W        W29579  32.723  11.731  53.773
37656W        W29580  45.720  47.685  49.701
37657W        W29581  38.188  20.266  52.428
37658W        W29582  10.264   4.760  52.428
37659W        W29583  18.765  32.732  51.057
37660W        W29584  28.722  34.208  49.701
37661W        W29585  30.243  43.698  52.861
37662W        W29586  46.201  17.759  50.124
37663W        W29587   0.297  22.246  53.793
37664W        W29588  31.714  44.200  50.619
37665W        W29589   5.761   2.248  50.598
37666W        W29590  10.779  18.233  50.127
37667W        W29591   7.740  41.706  49.696
37668W        W29592  27.229  38.223  49.707
37669W        W29593  19.757  10.777  49.671
37670W        W29594  33.208  25.710  50.592
37671W        W29595  12.259  26.732  52.889
37672W        W29596  26.709  41.200  52.405
37673W        W29597   3.290   6.270  50.139
37674W        W29598   1.282  18.769  51.988
37675W        W29599  24.723  11.242  52.404
37676W        W29600  32.209  15.245  51.499
37677W        W29601  42.223  22.761  52.423
37678W        W29602  32.706   6.769  53.807
37679W        W29603   5.777   0.754  51.522
37680W        W29604   6.765  13.748  53.344
37681W        W29605  21.722   5.747  53.781
37682W        W29606  20.253   9.282  51.527
37683W        W29607  28.721  12.258  51.978
37684W        W29608   7.739  15.732  51.527
37685W        W29609  19.241   2.771  50.623
37686W        W29610   4.744  24.745  53.350
37687W        W29611  15.765  10.237  49.669
37688W        W29612  12.260   6.775  53.783
37689W        W29613  41.196  10.238  49.700
37690W        W29614  36.219  28.720  53.327
37691W        W29615  13.767   7.238  49.705
37692W        W29616   9.774  14.734  53.327
37693W        W29617  20.736  15.270  52.870
37694W        W29618  24.219  10.761  52.885
37695W        W29619  13.732  28.213  52.432
37696W        W29620  34.230  29.720  51.076
37697W        W29621  12.755  19.743  52.447
37698W        W29622  15.238  25.225  50.165
37699W        W29623  33.196  10.240  53.800
37700W        W29624   8.762  20.261  50.137
37701W        W29625  28.723   3.256  51.044
37702W        W29626  36.230  46.197  53.323
37703W        W29627   6.289  15.254  50.122
37704W        W29628  30.720  16.240  51.053
37705W        W29629  15.759  46.699  53.328
37706W        W29630  32.742  33.214  50.151
37707W        W29631  45.710   6.786  53.790
37708W        W29632  14.727  43.712  51.053
37709W        W29633  19.767   4.276  49.690
37710W        W29634  43.726  36.727  53.324
37711W        W29635   4.245  18.743  51.977
37712W        W29636  28.244  45.710  52.902
37713W        W29637  11.233  43.716  52.447
37714W        W29638   9.767  29.736  49.666
37715W        W29639  39.217  20.256  52.883
37716W        W29640  17.229   3.294  50.582
37717W        W29641  30.241  12.254  51.501
37718W        W29642  27.729  42.209  49.671
37719W        W29643  13.757  23.722  52.872
37720W        W29644  44.210  46.185  51.953
37721W        W29645  11.732  41.225  53.343
37722W        W29646  20.763  24.758  53.345
37723W        W29647  43.183  43.221  50.589
37724W        W29648  40.231  11.778  51.501
37725W        W29649   9.240  20.254  51.505
37726W        W29650  26.211  45.186  51.051
37727W        W29651  19.722  25.731  49.709
37728W        W29652  34.209   0.752  51.048
37729W        W29653  15.747   9.756  52.421
37730W        W29654  28.221  37.227  51.963
37731W        W29655  25.241   9.279  51.534
37732W        W29656  34.242  36.223  51.508
37733W        W29657  36.192  43.188  51.522
37734W        W29658  31.747  38.694  49.678
37735W        W29659  12.265  12.275  52.413
37736W        W29660  13.735  43.182  53.334
37737W        W29661  47.680  32.218  53.358
37738W        W29662  41.229  17.252  53.355
37739W        W29663  16.772  33.218  50.578
37740W        W29664   5.784  31.231  50.578
37741W        W29665  10.758  25.245  49.684
37742W        W29666  15.732  32.739  51.969
37743W        W29667  39.692   3.775  51.509
37744W        W29668  37.735  13.759  50.601
37745W        W29669  45.684   3.790  50.155
37746W        W29670   3.268  37.206  51.522
37747W        W29671  16.247   7.240  51.503
37748W        W29672  46.223   2.782  49.680
37749W        W29673  46.674   4.751  52.873
37750W        W29674  34.238  15.737  52.871
37751W        W29675   6.248  32.716  49.684
37752W        W29676  23.729  37.691  51.503
37753W        W29677  29.733  28.710  51.495
37754W        W29678  10.732   3.781  51.532
37755W        W29679  17.239  27.206  53.814
37756W        W29680  39.729   4.751  50.139
37757W        W29681   7.279  11.261  50.597
37758W        W29682   5.260  29.222  52.864
37759W        W29683  34.740  44.190  53.326
37760W        W29684   9.269   3.250  51.059
37761W        W29685  15.251  44.709  51.534
37762W        W29686  12.766  31.734  52.436
37763W        W29687   3.255   7.257  53.329
37764W        W29688  22.745  21.217  49.680
37765W        W29689   1.755   3.261  50.594
37766W        W29690  32.231  42.712  53.810
37767W        W29691  38.716  23.252  50.158
37768W        W29692  46.678  47.717  52.439
37769W        W29693   4.271  42.711  50.164
37770W        W29694  40.211  31.209  53.330
37771W        W29695  18.236  45.205  50.154
37772W        W29696  36.219  30.716  50.154
37773W        W29697  47.692  15.256  53.805
37774W        W29698  38.220  11.240  53.334
37775W        W29699   4.772  43.682  51.970
37776W        W29700   4.266  28.242  52.869
37777W        W29701  21.249   7.259  50.128
37778W        W29702  35.693  27.213  50.594
37779W        W29703  44.726  43.718  52.446
37780W        W29704   6.276   3.271  52.445
37781W        W29705  20.735  19.233  53.801
37782W        W29706  25.244   1.786  51.960
37783W        W29707   4.757  40.206  53.809
37784W        W29708  12.235  19.762  53.815
37785W        W29709  11.243   8.280  50.604
37786W        W29710   5.242  27.730  51.047
37787W        W29711   6.742  15.270  52.443
37788W        W29712  47.173   5.242  50.151
37789W        W29713  44.715  41.227  53.320
37790W        W29714  10.265  23.733  51.526
37791W        W29715  13.230  32.732  51.514
37792W        W29716  20.760  28.705  50.126
37793W        W29717  39.196  12.233  51.512
37794W        W29718  11.757  26.743  50.128
37795W        W29719  11.274  39.203  53.341
37796W        W29720  16.742  42.185  51.965
37797W        W29721  22.740  28.738  50.591
37798W        W29722  44.214  19.246  50.622
37799W        W29723  37.705  19.748  51.515
37800W        W29724  42.187  25.749  52.425
37801W        W29725  26.226  41.188  49.667
37802W        W29726  29.711  31.209  53.334
37803W        W29727  35.204  12.733  53.780
37804W        W29728  43.701   5.770  52.905
37805W        W29729   2.790  33.230  51.063
37806W        W29730  43.709  34.200  49.675
37807W        W29731  44.691  11.771  52.438
37808W        W29732  44.220  28.710  53.320
37809W        W29733  44.710  43.714  50.142
37810W        W29734  25.730  32.239  53.802
37811W        W29735  44.724  45.180  51.500
37812W        W29736   1.260  23.721  52.882
37813W        W29737  19.737  24.221  53.349
37814W        W29738  25.720  42.213  51.513
37815W        W29739   7.745  26.235  53.318
37816W        W29740  27.722  38.230  50.596
37817W        W29741   2.287  38.730  53.320
37818W        W29742  22.234  15.272  50.616
37819W        W29743   1.778  31.714  50.160
37820W        W29744  36.711  16.730  49.677
37821W        W29745  32.727  42.191  52.429
37822W        W29746  44.721   7.257  51.980
37823W        W29747   1.262  36.196  49.684
37824W        W29748   1.758   4.269  51.078
37825W        W29749  20.734  39.190  53.320
37826W        W29750   5.776  38.219  52.425
37827W        W29751   2.248  25.224  51.496
37828W        W29752  31.202   5.260  50.599
37829W        W29753  19.746   9.763  49.689
37830W        W29754  12.738  23.761  50.132
37831W        W29755   1.749   0.299  52.866
37832W        W29756  24.720  17.264  51.514
37833W        W29757  11.235  18.256  52.890
37834W        W29758  38.236  29.208  51.961
37835W        W29759  12.753  43.208  50.595
37836W        W29760  45.694  12.730  53.321
37837W        W29761  35.194  47.678  51.956
37838W        W29762  23.723   2.291  49.695
37839W        W29763  18.254  10.774  53.795
37840W        W29764  20.246   3.779  49.688
37841W        W29765   7.246  25.252  52.447
37842W        W29766  34.217  15.235  51.073
37843W        W29767   3.267  47.211  53.782
37844W        W29768  15.746   8.783  50.614
37845W        W29769  39.214  27.725  51.522
37846W        W29770  20.742  37.712  53.352
37847W        W29771  29.219  27.751  51.495
37848W        W29772  39.712  12.754  50.129
37849W        W29773  26.706  34.720  52.431
37850W        W29774  18.225  47.711  52.433
37851W        W29775   5.752  10.749  50.143
37852W        W29776  37.701  24.737  50.584
37853W        W29777   8.268  18.763  50.165
37854W        W29778   2.285  48.193  52.433
37855W        W29779  27.206  48.211  51.988
37856W        W29780  45.200  31.731  51.529
37857W        W29781  23.721   5.254  51.963
37858W        W29782   7.273  18.245  51.492
37859W        W29783   1.291  26.254  51.052
37860W        W29784  22.749   9.284  50.147
37861W        W29785  13.234  21.263  50.615
37862W        W29786  18.731  40.214  50.615
37863W        W29787  31.716  28.208  50.604
37864W        W29788  48.208  32.237  51.054
37865W        W29789  22.230  31.212  52.863
37866W        W29790  46.677  42.682  53.321
37867W        W29791  17.263  31.733  50.615
37868W        W29792  20.726   5.270  53.779
37869W        W29793  39.715  37.215  51.051
37870W        W29794   5.243  48.185  51.973
37871W        W29795  31.708  26.246  50.137
37872W        W29796  40.704  11.241  50.144
37873W        W29797  23.244  12.733  51.978
37874W        W29798  11.750  26.237  50.161
37875W        W29799  47.206   7.265  52.903
37876W        W29800   9.243   7.283  53.330
37877W        W29801  32.703  46.211  51.056
37878W        W29802  15.255  30.202  51.051
37879W        W29803  43.696  29.714  52.894
37880W        W29804  29.244  30.211  50.152
37881W        W29805  10.766  10.262  53.327
37882W        W29806  14.241  31.207  52.864
37883W        W29807  16.262   9.779  53.803
37884W        W29808  46.709  45.204  49.688
37885W        W29809   3.772  15.762  51.527
37886W        W29810  14.750  41.191  52.882
37887W        W29811  38.212  21.736  51.529
37888W        W29812  36.214   6.775  49.700
37889W        W29813  45.714   7.742  50.125
37890W        W29814  30.241   5.746  53.792
37891W        W29815  14.240   5.761  51.947
37892W        W29816  41.199  33.738  52.409
37893W        W29817  11.264  37.693  53.791
37894W        W29818   5.270  43.705  51.068
37895W        W29819   5.244  28.232  52.424
37896W        W29820  15.735  30.711  52.447
37897W        W29821  16.737  27.714  52.443
37898W        W29822  27.752  41.730  51.947
37899W        W29823  46.722  38.729  51.953
37900W        W29824  26.730  42.701  50.135
37901W        W29825  35.201  29.251  51.990
37902W        W29826  48.182  35.201  53.331
37903W        W29827  15.767  19.249  51.956
37904W        W29828  35.741  48.172  51.507
37905W        W29829  28.726  22.747  49.708
37906W        W29830  36.733  24.736  50.618
37907W        W29831  46.697  19.752  52.892
37908W        W29832  14.238   8.779  50.163
37909W        W29833  23.751  27.220  52.407
37910W        W29834   0.757  10.746  51.980
37911W        W29835  33.223  34.714  49.697
37912W        W29836  46.701   3.773  51.504
37913W        W29837   3.287  28.234  51.072
37914W        W29838  39.716   7.776  52.874
37915W        W29839  28.249  31.704  52.403
37916W        W29840  45.686  34.703  50.144
37917W        W29841  41.211   5.257  53.808
37918W        W29842  24.227   5.261  51.968
37919W        W29843  30.249   5.786  52.432
37920W        W29844   8.741  29.727  51.523
37921W        W29845  28.231   6.269  51.950
37922W        W29846  27.239   7.756  51.525
37923W        W29847  37.728  40.217  49.676
37924W        W29848   7.774  24.742  53.799
37925W        W29849  39.202  38.217  53.795
37926W        W29850  44.708  33.217  53.785
37927W        W29851  39.691  21.764  53.803
37928W        W29852  44.221  37.228  51.525
37929W        W29853  25.253  39.191  51.050
37930W        W29854  13.765   0.778  51.048
37931W        W29855  38.689   9.734  50.604
37932W        W29856  41.210  15.270  53.792
37933W        W29857  17.740  31.239  52.863
37934W        W29858   2.765   9.275  50.157
37935W        W29859  45.684  46.692  53.802
37936W        W29860   2.791  48.188  49.671
37937W        W29861   5.762   3.263  53.353
37938W        W29862  48.193  35.204  51.529
37939W        W29863   0.777  48.208  51.502
37940W        W29864  34.712  18.241  50.583
37941W        W29865  16.234   6.270  50.614
37942W        W29866  27.732  27.217  51.512
37943W        W29867  31.227  45.694  50.592
37944W        W29868  14.271  26.222  50.600
37945W        W29869  35.711   8.262  51.535
37946W        W29870   3.250  42.719  49.667
37947W        W29871   0.750  17.244  50.156
37948W        W29872  36.234  44.212  52.427
37949W        W29873   5.745  43.726  51.073
37950W        W29874  25.254  46.718  51.508
37951W        W29875  29.731  37.729  52.880
37952W        W29876  14.739   9.775  52.415
37953W        W29877  22.237   6.254  50.623
37954W        W29878  13.735  25.233  51.046
37955W        W29879  42.703  48.216  52.447
37956W        W29880  24.250  46.703  53.805
37957W        W29881  17.236  45.184  50.154
37958W        W29882  17.227  35.727  50.152
37959W        W29883  34.721  19.748  51.039
37960W        W29884   7.739   2.792  51.515
37961W        W29885  10.234  44.212  51.497
37962W        W29886  15.730   2.767  52.873
37963W        W29887  42.697  18.236  50.142
37964W        W29888  41.710  26.730  50.166
37965W        W29889  13.772  43.708  50.618
37966W        W29890  18.259  32.720  51.503
37967W        W29891  18.240  10.253  52.431
37968W        W29892  26.730  21.735  51.972
37969W        W29893  10.254  20.731  51.970
37970W        W29894  19.236  38.198  51.525
37971W        W29895  28.213  28.731  53.795
37972W        W29896  39.206  40.698  51.062
37973W        W29897  20.245  20.238  53.778
37974W        W29898  37.708  21.738  53.800
37975W        W29899  47.214  41.182  50.599
37976W        W29900  24.749  15.231  50.589
37977W        W29901  18.719  16.765  51.066
37978W        W29902  22.761  38.731  52.902
37979W        W29903  42.711  32.710  53.356
37980W        W29904  34.716   1.752  53.334
37981W        W29905  33.240  23.234  51.964
37982W        W29906   9.244  16.740  51.053
37983W        W29907  12.751  41.194  50.595
37984W        W29908  30.225  18.746  51.523
37985W        W29909   9.775  24.735  52.870
37986W        W29910  13.240  36.209  51.953
37987W        W29911  26.730  44.218  50.153
37988W        W29912  47.720  18.229  51.038
37989W        W29913  28.224  44.185  52.893
37990W        W29914  45.202  29.741  51.950
37991W        W29915   6.283   9.284  50.122
37992W        W29916   5.274  28.719  52.428
37993W        W29917   3.289  46.188  51.511
37994W        W29918  19.726   3.265  51.049
37995W        W29919  26.255   3.748  51.074
37996W        W29920  17.238  18.761  51.061
37997W        W29921  31.701  42.717  50.595
37998W        W29922   3.790  35.730  52.861
37999W        W29923   6.267  43.202  51.948
38000W        W29924  46.684   1.287  52.876
38001W        W29925   2.266  11.779  51.972
38002W        W29926  34.197  28.714  52.444
38003W        W29927  40.228  31.216  49.680
38004W        W29928  40.711  15.227  52.433
38005W        W29929  35.228  26.712  50.609
38006W        W29930  43.696  20.237  50.137
38007W        W29931  12.732  25.757  50.607
38008W        W29932   4.285  42.196  51.948
38009W        W29933   0.257  10.235  51.976
38010W        W29934  25.227  19.760  52.417
38011W        W29935   6.756  48.209  52.902
38012W        W29936  28.240  19.761  51.509
38013W        W29937   9.758  13.734  50.153
38014W        W29938  11.255  46.698  53.783
38015W        W29939   2.289  11.741  51.526
38016W        W29940  20.733  36.701  49.685
38017W        W29941  26.232   7.268  52.415
38018W        W29942  11.236  46.223  50.154
38019W        W29943  37.717  20.244  49.665
38020W        W29944   4.778  43.719  53.803
38021W        W29945   0.284   6.782  51.071
38022W        W29946   0.268  37.220  51.057
38023W        W29947  34.226  30.740  49.692
38024W        W29948  32.211  37.211  53.796
38025W        W29949  19.746  45.681  52.895
38026W        W29950  44.697   9.260  51.068
38027W        W29951  30.220  32.200  52.886
38028W        W29952  18.723  13.744  50.141
38029W        W29953  36.694  39.229  51.948
38030W        W29954  36.724  33.724  53.802
38031W        W29955   3.765  26.224  52.423
38032W        W29956  34.740  13.774  50.137
38033W        W29957  12.729  15.752  51.526
38034W        W29958   0.282  23.254  51.973
38035W        W29959  11.276  43.208  51.965
38036W        W29960   0.268   2.772  52.421
38037W        W29961  14.731  28.235  51.522
38038W        W29962  43.720  41.725  49.700
38039W        W29963  41.221  13.757  51.535
38040W        W29964  13.264  36.713  53.809
38041W        W29965  27.219  46.211  53.806
38042W        W29966  43.221  14.732  52.875
38043W        W29967  16.746  42.191  52.868
38044W        W29968  11.240  19.223  52.420
38045W        W29969  45.223  39.194  50.151
38046W        W29970   8.259  46.706  51.040
38047W        W29971  31.199  17.232  51.514
38048W        W29972  25.251  30.238  49.702
38049W        W29973   3.262  47.218  50.601
38050W        W29974   8.269  21.751  50.142
38051W        W29975  30.224  21.739  53.318
38052W        W29976  29.710  33.742  50.614
38053W        W29977  38.708  30.207  52.444
38054W        W29978  43.694  13.264  51.038
38055W        W29979  22.244   5.263  53.783
38056W        W29980   8.265   3.765  53.349
38057W        W29981  28.209  10.248  51.519
38058W        W29982  10.756  38.720  50.614
38059W        W29983  20.752   1.751  51.046
38060W        W29984  22.751  27.251  53.337
38061W        W29985  37.736   6.751  50.598
38062W        W29986  10.239  11.250  50.147
38063W        W29987   2.255  25.211  49.665
38064W        W29988  41.199   6.747  51.511
38065W        W29989  32.211  17.243  52.418
38066W        W29990  45.718  37.223  51.034
38067W        W29991  16.227  29.733  53.346
38068W        W29992  34.243  14.263  53.793
38069W        W29993   5.766  37.222  53.348
38070W        W29994  38.221   9.771  52.416
38071W        W29995  11.763  13.266  53.800
38072W        W29996  34.719   0.282  52.895
38073W        W29997  16.746  43.182  51.078
38074W        W29998  44.194   8.781  51.508
38075W        W29999  29.236  23.249  53.345
38076W        W30000  15.745  19.221  53.798
38077W        W30001  12.762  26.752  52.905
38078W        W30002   5.245  38.691  50.155
38079W        W30003  45.201  33.199  51.956
38080W        W30004  19.224  26.214  52.420
38081W        W30005  35.218  40.707  51.529
38082W        W30006  23.735  15.246  50.584
38083W        W30007  38.202  17.752  53.798
38084W        W30008   3.282  19.732  51.534
38085W        W30009  33.202  17.230  52.416
38086W        W30010  46.183  15.264  53.339
38087W        W30011  25.235  22.752  50.140
38088W        W30012  11.239  41.708  50.618
38089W        W30013  36.737  15.768  51.065
38090W        W30014  46.196  19.242  50.126
38091W        W30015  29.216  13.768  52.437
38092W        W30016  17.746  24.243  51.517
38093W        W30017  21.254  14.766  52.404
38094W        W30018  29.225  33.741  53.340
38095W        W30019   4.291   6.268  51.051
38096W        W30020  41.727   4.261  50.151
38097W        W30021  26.213  28.718  52.864
38098W        W30022  48.196  14.255  52.431
38099W        W30023  24.719  12.733  52.435
38100W        W30024  24.719  39.192  51.978
38101W        W30025   9.263  17.230  50.599
38102W        W30026  31.225  12.774  52.428
38103W        W30027  37.737  44.694  51.035
38104W        W30028   1.266   3.753  52.878
38105W        W30029  13.744  27.222  51.532
38106W        W30030  29.245  25.756  50.140
38107W        W30031   1.275  25.752  51.961
38108W        W30032  24.734  47.689  50.134
38109W        W30033  25.248   9.252  52.870
38110W        W30034   4.292  24.735  50.580
38111W        W30035  23.730  33.742  52.439
38112W        W30036  21.249   5.778  51.054
38113W        W30037  12.766  16.748  51.055
38114W        W30038   3.787  35.236  52.879
38115W        W30039  47.184  40.194  50.135
38116W        W30040  26.235  40.217  50.609
38117W        W30041  30.715  44.204  50.157
38118W        W30042  44.221   1.784  51.067
38119W        W30043  45.195   5.774  53.326
38120W        W30044  46.690  41.229  52.891
38121W        W30045  23.260   7.773  52.888
38122W        W30046   2.772  25.215  49.679
38123W        W30047  34.198  22.750  51.490
38124W        W30048  42.209  17.738  53.349
38125W        W30049  46.198  43.188  53.814
38126W        W30050  28.751  13.255  53.811
38127W        W30051   0.774  12.745  51.523
38128W        W30052   4.269  46.705  53.331
38129W        W30053  18.728   3.285  51.078
38130W        W30054  48.171  20.762  53.330
38131W        W30055  21.255  15.751  51.982
38132W        W30056  13.746  14.766  50.595
38133W        W30057   2.767  22.729  51.037
38134W        W30058  30.214   9.261  53.774
38135W        W30059  39.696  18.247  52.888
38136W        W30060  44.223  43.703  53.321
38137W        W30061  42.208  14.227  53.346
38138W        W30062  39.225   4.258  53.345
38139W        W30063  20.717   9.747  53.337
38140W        W30064  23.245  29.731  53.351
38141W        W30065  43.693   2.790  50.599
38142W        W30066  16.254   9.241  53.344
38143W        W30067  23.239   7.247  53.340
38144W        W30068  22.261  46.178  51.054
38145W        W30069  22.246  26.243  50.621
38146W        W30070  17.256  20.264  52.404
38147W        W30071  11.265   5.776  52.903
38148W        W30072  40.213  26.243  51.949
38149W        W30073  16.728  27.236  52.431
38150W        W30074  15.754   9.767  51.971
38151W        W30075  40.194  13.263  50.586
38152W        W30076  45.684  45.208  51.056
38153W        W30077  20.264  13.753  53.811
38154W        W30078  22.748  25.209  50.619
38155W        W30079   4.261  29.209  50.151
38156W        W30080  35.211  17.249  53.340
38157W        W30081  12.777   6.769  50.606
38158W        W30082  30.208  35.721  53.800
38159W        W30083   8.764  25.224  52.422
38160W        W30084   2.758  42.726  51.062
38161W        W30085   2.776   9.784  52.888
38162W        W30086   5.747  31.736  53.347
38163W        W30087  42.190  23.221  50.153
38164W        W30088  42.704  38.736  53.808
38165W        W30089  37.721  13.232  51.065
38166W        W30090   8.254  27.221  49.665
38167W        W30091  47.174  15.266  53.350
38168W        W30092  38.205   7.279  53.809
38169W        W30093  43.710  22.719  51.529
38170W        W30094  25.745  16.723  52.875
38171W        W30095  20.750  45.176  52.890
38172W        W30096  19.756   2.254  50.596
38173W        W30097   9.745  30.726  52.894
38174W        W30098  13.741  12.734  52.424
38175W        W30099  41.693   8.758  51.986
38176W        W30100  13.753  35.219  50.156
38177W        W30101  47.704  25.237  49.678
38178W        W30102  16.261   3.756  53.355
38179W        W30103  46.694  30.722  51.518
38180W        W30104  16.225  41.716  51.519
38181W        W30105  10.246  18.734  50.582
38182W        W30106  14.750  34.226  51.530
38183W        W30107  45.720  38.730  52.436
38184W        W30108   4.768   9.752  53.360
38185W        W30109  14.761  13.734  49.682
38186W        W30110  12.276  21.726  53.353
38187W        W30111   3.744  47.698  50.150
38188W        W30112  33.225  14.733  51.957
38189W        W30113  28.707  14.275  52.403
38190W        W30114  16.242  36.201  52.429
38191W        W30115   8.267  40.728  51.969
38192W        W30116  12.754  33.226  53.797
38193W        W30117   8.770  20.759  50.582
38194W        W30118  19.239  30.723  51.947
38195W        W30119  13.759   8.758  51.036
38196W        W30120  19.723  45.180  50.155
38197W        W30121   9.268  28.747  53.333
38198W        W30122  35.239  32.733  53.779
38199W        W30123  41.216  39.215  51.968
38200W        W30124   8.773  21.253  49.666
38201W        W30125  33.738  35.713  52.895
38202W        W30126  46.192  29.728  52.426
38203W        W30127  43.227   2.271  53.359
38204W        W30128  10.239  14.772  51.064
38205W        W30129  41.198   9.241  51.952
38206W        W30130  38.224  24.720  53.788
38207W        W30131  16.753  41.701  52.417
38208W        W30132  45.221  22.713  53.358
38209W        W30133  13.273  40.232  53.317
38210W        W30134  13.244  38.713  53.810
38211W        W30135  44.690  14.275  51.981
38212W        W30136  30.224   9.239  51.034
38213W        W30137  33.210  48.191  53.809
38214W        W30138  27.206  11.779  53.803
38215W        W30139   6.743  44.210  51.041
38216W        W30140   0.254   5.261  53.351
38217W        W30141  19.767  12.763  50.150
38218W        W30142   5.775  26.732  49.702
38219W        W30143  21.716  20.229  49.665
38220W        W30144  28.710   7.277  53.317
38221W        W30145  46.184  18.730  50.587
38222W        W30146  32.713  32.237  51.041
38223W        W30147  16.238  34.725  49.695
38224W        W30148  48.208   3.275  53.337
38225W        W30149  24.213   2.267  52.865
38226W        W30150  19.237  36.203  51.078
38227W        W30151   3.250  41.214  53.316
38228W        W30152  29.719  40.728  50.147
38229W        W30153  39.730  29.221  53.347
38230W        W30154  23.254  17.737  50.153
38231W        W30155  43.724  48.191  49.690
38232W        W30156   8.280   7.740  50.128
38233W        W30157  44.688   6.761  51.061
38234W        W30158  47.173   4.754  51.981
38235W        W30159  23.222  28.229  50.592
38236W        W30160   2.274  42.680  53.808
38237W        W30161  44.677  22.251  49.688
38238W        W30162  12.254  25.235  51.034
38239W        W30163  14.761  11.264  51.499
38240W        W30164   1.286  38.204  52.436
38241W        W30165  29.735  33.726  52.441
38242W        W30166  24.255  39.186  53.351
38243W        W30167  32.233  36.728  51.046
38244W        W30168  16.243  29.711  50.157
38245W        W30169  35.238   9.765  50.618
38246W        W30170   5.279  43.723  51.501
38247W        W30171  30.742   7.272  51.491
38248W        W30172   8.765  20.220  52.433
38249W        W30173   6.785  28.225  50.159
38250W        W30174  29.250  23.232  52.411
38251W        W30175  43.190  11.775  49.669
38252W        W30176  34.197  44.204  51.492
38253W        W30177  10.781   9.275  50.125
38254W        W30178   7.780  15.724  50.604
38255W        W30179  29.243  22.739  51.957
38256W        W30180  20.245  17.224  52.880
38257W        W30181   5.761   2.792  53.803
38258W        W30182  20.220  32.215  52.900
38259W        W30183  37.703  36.193  51.974
38260W        W30184  43.198  18.233  50.159
38261W        W30185  28.233  37.706  52.420
38262W        W30186  40.694   7.747  53.351
38263W        W30187  40.683  42.689  53.359
38264W        W30188   5.246  26.725  53.804
38265W        W30189  29.221   8.250  50.156
38266W        W30190   5.742   5.269  52.899
38267W        W30191  28.734  40.724  49.675
38268W        W30192  35.710  21.248  52.874
38269W        W30193  13.741   0.765  51.974
38270W        W30194  48.218  38.698  53.334
38271W        W30195  42.723  25.237  53.355
38272W        W30196   4.768   9.242  52.872
38273W        W30197  31.731  35.237  51.948
38274W        W30198  17.235  25.232  50.600
38275W        W30199  39.231  12.763  50.578
38276W        W30200  33.201  21.747  51.518
38277W        W30201  34.702  21.262  49.690
38278W        W30202  11.734  38.224  53.325
38279W        W30203   8.251  17.263  53.773
38280W        W30204  17.237  37.726  51.976
38281W        W30205   1.771  23.254  51.034
38282W        W30206  33.702  17.739  52.448
38283W        W30207   8.745  12.277  51.051
38284W        W30208  17.234  36.694  51.981
38285W        W30209  46.204  29.247  52.874
38286W        W30210   5.755  27.251  53.773
38287W        W30211  25.719  48.188  52.882
38288W        W30212   4.255  18.255  52.880
38289W        W30213  23.726  33.743  51.055
38290W        W30214  24.752   4.783  53.783
38291W        W30215  40.200  42.701  52.432
38292W        W30216  25.241   0.298  50.165
38293W        W30217  38.209  38.221  52.882
38294W        W30218   8.755   9.735  50.606
38295W        W30219  16.731  37.236  53.324
38296W        W30220  22.726  43.191  52.416
38297W        W30221  32.223  37.721  52.435
38298W        W30222   5.768   5.742  52.882
38299W        W30223   7.241  45.717  51.036
38300W        W30224  38.226  20.241  51.511
38301W        W30225   0.271  36.196  52.421
38302W        W30226  21.255  13.274  51.076
38303W        W30227   0.783  24.254  50.621
38304W        W30228  16.745  41.691  53.360
38305W        W30229  21.239  34.704  52.886
38306W        W30230  10.771   2.784  50.130
38307W        W30231   7.780  42.695  52.424
38308W        W30232  27.733   2.280  51.959
38309W        W30233  21.221   2.787  49.699
38310W        W30234  19.760   3.293  49.686
38311W        W30235  40.688   4.762  53.795
38312W        W30236  33.703  24.729  51.516
38313W        W30237  21.228   1.255  51.956
38314W        W30238  47.700  10.269  50.594
38315W        W30239  10.770  45.200  52.899
38316W        W30240  12.774  20.745  52.430
38317W        W30241  43.190  32.705  51.055
38318W        W30242   4.764   6.747  51.515
38319W        W30243  36.712   9.756  51.946
38320W        W30244  19.718   6.743  50.602
38321W        W30245  11.737  26.224  51.034
38322W        W30246   0.759   1.257  51.497
38323W        W30247  17.762  22.235  52.876
38324W        W30248  16.263  45.203  51.064
38325W        W30249  17.759  34.706  53.777
38326W        W30250  38.704  45.206  53.348
38327W        W30251   4.752  41.709  50.594
38328W        W30252  22.224  27.735  53.802
38329W        W30253  32.223  20.748  53.324
38330W        W30254  32.219  16.723  53.817
38331W        W30255  10.778  29.214  50.126
38332W        W30256  27.218  39.696  51.512
38333W        W30257  41.206  37.720  52.417
38334W        W30258  40.230  37.209  53.800
38335W        W30259  36.234  40.228  52.903
38336W        W30260  46.681  12.737  49.684
38337W        W30261  21.750  30.230  52.433
38338W        W30262  31.737  30.703  52.884
38339W        W30263  41.214  47.675  53.361
38340W        W30264  35.204  17.271  51.048
38341W        W30265  37.721  19.747  50.615
38342W        W30266  22.760  41.214  50.581
38343W        W30267  29.717  19.240  50.123
38344W        W30268  44.179   3.247  51.501
38345W        W30269  47.709   6.253  51.951
38346W        W30270  34.720   0.754  51.960
38347W        W30271  18.222   9.735  51.990
38348W        W30272   2.753  46.176  53.353
38349W        W30273  14.752  41.225  49.669
38350W        W30274  25.746   3.287  52.448
38351W        W30275   0.795   8.762  50.585
38352W        W30276  16.731  36.734  52.862
38353W        W30277  15.258  33.214  53.816
38354W        W30278  46.217  26.713  51.988
38355W        W30279  28.248  25.719  53.812
38356W        W30280  38.689  18.232  52.890
38357W        W30281  35.703  29.706  49.684
38358W        W30282  41.719  42.211  50.581
38359W        W30283  32.198  17.759  51.060
38360W        W30284  20.242   8.763  51.517
38361W        W30285  10.242  39.718  53.324
38362W        W30286  47.693   3.270  49.700
38363W        W30287   8.267   1.796  50.591
38364W        W30288   2.759  11.258  53.815
38365W        W30289  27.233  42.717  49.678
38366W        W30290  47.186  24.216  51.491
38367W        W30291  29.222  24.737  50.598
38368W        W30292  17.735   3.257  51.491
38369W        W30293  21.747  19.754  51.524
38370W        W30294  43.201  29.225  52.872
38371W        W30295  36.200  44.715  51.500
38372W        W30296  32.222  27.206  52.405
38373W        W30297  19.265  32.730  51.984
38374W        W30298  10.756  21.241  51.064
38375W        W30299  29.716  48.179  49.667
38376W        W30300  15.232   0.794  53.336
38377W        W30301  34.712  47.718  50.161
38378W        W30302  44.181  17.736  52.414
38379W        W30303  34.742  28.736  52.870
38380W        W30304  33.200  24.733  51.968
38381W        W30305  15.241  26.718  52.445
38382W        W30306  26.716   7.264  52.442
38383W        W30307   0.292   4.752  52.862
38384W        W30308   0.292   4.763  50.604
38385W        W30309  38.217   7.249  50.602
38386W        W30310  41.697  20.732  51.968
38387W        W30311  32.705  37.692  53.332
38388W        W30312  23.750   6.275  51.990
38389W        W30313  16.268  28.252  53.335
38390W        W30314   7.284  29.742  51.967
38391W        W30315   4.289  45.686  50.121
38392W        W30316   3.746  21.227  51.953
38393W        W30317  17.768  40.227  51.035
38394W        W30318  38.707  14.230  51.034
38395W        W30319  32.216  43.195  51.069
38396W        W30320  31.705  13.239  51.078
38397W        W30321  35.716   3.761  51.980
38398W        W30322  18.243  27.213  53.808
38399W        W30323  27.711  30.711  53.318
38400W        W30324  31.710   6.240  50.146
38401W        W30325  28.725   2.283  51.951
38402W        W30326  35.733   8.779  50.127
38403W        W30327   3.790  24.225  49.672
38404W        W30328  43.186   4.749  51.076
38405W        W30329  40.228  17.260  51.980
38406W        W30330  20.747  12.253  51.036
38407W        W30331  35.223   9.249  51.503
38408W        W30332  16.742  12.263  52.434
38409W        W30333  35.210  18.763  53.809
38410W        W30334  29.716  44.188  50.589
38411W        W30335  33.740   8.744  52.442
38412W        W30336   5.746  35.193  51.948
38413W        W30337  29.731   5.252  50.143
38414W        W30338   8.777  38.209  52.866
38415W        W30339  38.210   3.770  51.503
38416W        W30340  29.712   8.273  49.704
38417W        W30341  37.689  36.722  49.686
38418W        W30342   3.757  28.712  50.148
38419W        W30343  43.219  33.220  50.152
38420W        W30344   2.250  23.751  51.957
38421W        W30345  10.277  47.710  50.607
38422W        W30346  40.186  33.696  51.954
38423W        W30347  42.703  30.700  51.044
38424W        W30348  14.775   6.270  53.330
38425W        W30349  35.225   8.777  51.514
38426W        W30350  29.230  20.718  49.703
38427W        W30351  44.192  10.755  50.144
38428W        W30352  30.701  37.732  52.424
38429W        W30353  18.755   0.281  49.707
38430W        W30354  10.756  10.756  50.160
38431W        W30355  39.706  16.240  50.156
38432W        W30356   9.278  43.201  52.412
38433W        W30357  27.226  20.726  51.965
38434W        W30358  30.229  25.739  53.782
38435W        W30359  41.703  12.769  51.039
38436W        W30360  21.762  32.215  53.772
38437W        W30361   2.249  27.233  53.335
38438W        W30362  17.763  32.731  50.600
38439W        W30363  34.212  48.201  52.904
38440W        W30364  22.756  47.682  51.525
38441W        W30365  48.207  46.692  51.078
38442W        W30366  48.183  23.221  53.807
38443W        W30367  34.235  19.744  52.898
38444W        W30368  27.727  11.774  49.676
38445W        W30369  40.708  21.745  53.357
38446W        W30370  27.235  23.742  50.599
38447W        W30371  28.206  43.680  51.048
38448W        W30372  33.238   6.246  50.582
38449W        W30373   0.281  33.703  50.121
38450W        W30374  12.779  35.202  52.407
38451W        W30375  45.707  14.739  53.318
38452W        W30376   4.776  24.753  49.706
38453W        W30377  45.684  35.195  52.445
38454W        W30378  33.730  43.217  50.147
38455W        W30379   5.275  25.726  53.817
38456W        W30380   8.756  29.725  49.676
38457W        W30381  29.721  12.237  51.042
38458W        W30382  19.239   1.275  52.409
38459W        W30383  40.716  35.733  52.881
38460W        W30384   8.772   3.773  52.893
38461W        W30385  45.205  13.742  53.353
38462W        W30386   5.775  48.196  49.694
38463W        W30387  21.725  14.755  52.418
38464W        W30388  40.213  25.753  49.666
38465W        W30389  36.711  28.713  51.507
38466W        W30390  43.699  30.720  50.594
38467W        W30391  15.246  43.683  51.951
38468W        W30392  10.759  28.727  51.983
38469W        W30393  21.237  35.242  52.435
38470W        W30394  39.212   3.255  51.514
38471W        W30395  18.241  24.228  50.148
38472W        W30396  30.744  37.721  51.952
38473W        W30397   0.284   0.794  53.797
38474W        W30398  13.734  17.748  50.621
38475W        W30399  12.770   0.298  53.779
38476W        W30400  29.720  14.732  51.497
38477W        W30401  41.681  32.737  52.901
38478W        W30402  44.198   9.267  51.064
38479W        W30403  36.222   8.251  50.622
38480W        W30404   8.764   1.257  52.407
38481W        W30405  21.258  20.726  53.331
38482W        W30406  20.763  25.739  51.522
38483W        W30407  37.201  16.767  50.159
38484W        W30408  32.731  18.761  52.868
38485W        W30409  10.775  44.186  50.150
38486W        W30410  42.186  39.721  49.707
38487W        W30411  45.698   9.739  49.705
38488W        W30412  38.701  31.229  53.324
38489W        W30413  20.235  42.704  49.705
38490W        W30414   7.750  14.268  51.987
38491W        W30415  24.735  34.241  53.339
38492W        W30416  35.234  24.260  53.337
38493W        W30417  28.746  11.247  51.047
38494W        W30418  26.714  42.698  53.325
38495W        W30419  23.755  26.723  52.859
38496W        W30420  39.228  21.727  50.611
38497W        W30421  46.185  27.235  50.128
38498W        W30422  39.213  45.190  50.166
38499W        W30423  20.749  28.751  51.074
38500W        W30424  23.228  32.221  53.361
38501W        W30425  23.756  14.267  53.342
38502W        W30426  39.229  21.255  51.067
38503W        W30427  42.203  10.272  50.149
38504W        W30428  20.739   3.782  51.962
38505W        W30429  38.719  11.762  53.805
38506W        W30430  44.709  23.719  50.131
38507W        W30431  37.714  13.267  51.961
38508W        W30432  39.721  24.220  53.792
38509W        W30433  24.235  46.676  50.152
38510W        W30434  11.745  44.686  50.580
38511W        W30435   3.263  15.765  53.360
38512W        W30436  47.680  42.220  50.122
38513W        W30437  29.726  40.201  51.034
38514W        W30438  21.745  12.262  51.963
38515W        W30439  38.716  28.717  51.525
38516W        W30440  29.229  36.226  51.527
38517W        W30441  22.721   1.287  53.326
38518W        W30442  42.220   0.260  52.439
38519W        W30443   6.769  17.233  51.495
38520W        W30444  27.226  30.210  51.981
38521W        W30445  33.221  31.216  52.887
38522W        W30446   3.760   2.761  51.991
38523W        W30447   0.784  23.249  52.870
38524W        W30448   1.249  46.703  52.413
38525W        W30449  40.212  19.238  52.442
38526W        W30450  16.760  10.237  50.593
38527W        W30451  11.262  38.720  52.892
38528W        W30452   3.271   8.246  51.052
38529W        W30453  42.197  11.762  51.500
38530W        W30454  10.745  35.737  50.144
38531W        W30455   7.759  22.255  51.075
38532W        W30456   1.767   5.259  53.328
38533W        W30457  41.232  41.728  51.972
38534W        W30458   4.770  22.722  52.418
38535W        W30459  42.699  38.704  50.620
38536W        W30460   6.756  26.722  51.523
38537W        W30461  18.245  30.708  52.427
38538W        W30462  36.201   2.751  53.330
38539W        W30463   4.291  35.728  51.063
38540W        W30464   1.288  38.188  49.679
38541W        W30465   3.294  28.703  51.533
38542W        W30466  18.242  31.223  53.338
38543W        W30467  11.772  40.718  53.339
38544W        W30468  15.763   4.276  49.682
38545W        W30469  24.755  37.191  51.050
38546W        W30470  22.755  21.741  51.491
38547W        W30471  24.258  24.730  50.582
38548W        W30472  26.708   1.260  51.523
38549W        W30473   0.299  38.201  50.130
38550W        W30474  27.210  31.241  51.984
38551W        W30475  35.218  34.196  51.988
38552W        W30476  48.204  44.189  51.060
38553W        W30477  24.220  41.228  52.866
38554W        W30478  16.269  30.221  52.893
38555W        W30479  25.753  18.223  53.349
38556W        W30480   4.256   0.284  50.598
38557W        W30481   2.793   6.244  51.050
38558W        W30482  12.739  35.229  53.808
38559W        W30483  22.244  40.184  50.127
38560W        W30484  33.728  28.250  51.058
38561W        W30485   2.753  29.703  53.809
38562W        W30486  46.720  25.251  51.037
38563W        W30487  16.224  46.183  52.877
38564W        W30488  42.200  16.724  52.423
38565W        W30489  33.242  23.747  50.615
38566W        W30490  43.709  28.752  53.806
38567W        W30491  44.194   3.760  51.042
38568W        W30492  43.214  45.207  49.672
38569W        W30493  27.254   1.770  51.505
38570W        W30494  31.730   2.786  51.052
38571W        W30495  24.226   9.268  52.415
38572W        W30496  46.674  39.202  52.867
38573W        W30497  34.201  45.214  50.592
38574W        W30498  46.180   6.744  51.041
38575W        W30499  33.725  17.733  51.511
38576W        W30500  21.724  19.718  53.358
38577W        W30501   5.770  43.195  49.689
38578W        W30502  28.706  18.268  52.445
38579W        W30503  37.197  20.235  51.079
38580W        W30504   4.283  46.174  51.978
38581W        W30505  46.222  21.230  50.121
38582W        W30506  17.735  40.720  51.072
38583W        W30507   5.243  26.237  53.804
38584W        W30508  36.698  26.214  50.608
38585W        W30509  13.766  11.773  49.673
38586W        W30510  12.774   7.759  50.137
38587W        W30511  16.772   1.265  51.950
38588W        W30512  38.729   1.785  51.508
38589W        W30513  37.206  45.706  51.071
38590W        W30514   4.782  46.178  51.982
38591W        W30515  38.215   8.758  51.057
38592W        W30516  24.214  40.206  51.976
38593W        W30517   8.742  34.719  52.879
38594W        W30518  35.205  27.215  53.784
38595W        W30519  39.186  29.217  53.330
38596W        W30520   8.780  29.229  51.956
38597W        W30521  33.712   8.762  51.076
38598W        W30522  12.748  21.734  52.866
38599W        W30523  19.738   9.276  50.164
38600W        W30524  10.733  19.722  50.136
38601W        W30525  10.244  31.741  52.867
38602W        W30526   9.262   6.285  51.533
38603W        W30527  41.702  29.725  52.442
38604W        W30528  43.205  20.263  50.580
38605W        W30529  40.701  38.723  52.429
38606W        W30530   8.755  34.714  50.132
38607W        W30531  30.703   5.745  49.667
38608W        W30532  12.740  20.258  51.520
38609W        W30533   8.742  18.740  53.357
38610W        W30534  43.711   4.251  51.535
38611W        W30535  31.237  13.257  52.903
38612W        W30536  24.221  14.736  53.782
38613W        W30537  14.231  34.711  50.578
38614W        W30538  38.214  17.723  53.334
38615W        W30539  30.214   5.261  53.346
38616W        W30540  47.711  37.217  53.788
38617W        W30541  11.280  32.201  51.979
38618W        W30542  44.215   6.777  51.987
38619W        W30543  41.687  43.725  52.437
38620W        W30544  26.737  18.248  51.037
38621W        W30545  17.724  14.757  50.599
38622W        W30546  38.202  39.720  53.816
38623W        W30547  29.706  18.732  51.989
38624W        W30548  27.218  39.728  50.597
38625W        W30549  46.178  17.759  52.439
38626W        W30550  29.207  13.262  49.665
38627W        W30551  17.749  30.229  52.896
38628W        W30552  40.232   0.773  51.977
38629W        W30553   7.248  25.238  50.129
38630W        W30554  25.248   5.776  52.882
38631W        W30555  28.251  10.754  53.774
38632W        W30556  19.221  46.178  53.326
38633W        W30557  34.693   3.279  52.879
38634W        W30558  19.250   7.771  53.318
38635W        W30559  18.721  23.719  52.880
38636W        W30560  41.194  46.206  50.128
38637W        W30561   6.755   3.792  49.673
38638W        W30562   2.777  47.183  51.970
38639W        W30563  45.220   1.256  51.526
38640W        W30564   3.767  28.232  53.775
38641W        W30565  21.747  22.219  53.805
38642W        W30566  28.742   0.763  49.707
38643W        W30567  29.241  46.185  51.041
38644W        W30568   8.784   0.299  52.881
38645W        W30569  22.726  33.213  53.782
38646W        W30570   3.775  22.253  50.145
38647W        W30571  32.217  45.213  51.062
38648W        W30572  45.190  25.230  51.078
38649W        W30573   3.787  42.697  50.602
38650W        W30574   8.260   5.767  51.950
38651W        W30575   7.267  14.766  50.577
38652W        W30576  32.727  42.184  49.685
38653W        W30577  31.745  11.745  53.321
38654W        W30578  31.218   9.254  53.786
38655W        W30579  14.246  10.259  49.702
38656W        W30580   4.265  29.224  52.423
38657W        W30581  15.249  22.747  51.984
38658W        W30582  23.760   1.291  51.969
38659W        W30583  44.224  42.187  52.403
38660W        W30584   7.243  45.707  52.894
38661W        W30585  14.741  32.717  51.075
38662W        W30586  22.755   2.253  51.970
38663W        W30587   9.739   6.286  50.612
38664W        W30588  39.186  13.263  52.860
38665W        W30589  14.250  29.744  51.049
38666W        W30590  35.204  16.236  52.898
38667W        W30591  25.253  45.689  50.598
38668W        W30592  45.693  19.222  52.431
38669W        W30593   4.756  16.767  53.774
38670W        W30594   9.251  11.272  50.600
38671W        W30595   6.745  35.229  50.583
38672W        W30596  35.706  36.230  52.408
38673W        W30597   7.266  30.731  52.436
38674W        W30598  16.225  45.186  50.606
38675W        W30599  18.751  17.729  49.670
38676W        W30600  36.231  42.211  52.889
38677W        W30601  12.268   4.752  53.809
38678W        W30602  27.737  13.242  49.699
38679W        W30603   3.787  18.748  50.592
38680W        W30604  27.219  30.216  53.347
38681W        W30605   3.278  37.207  53.800
38682W        W30606  38.706  23.243  49.686
38683W        W30607  19.728  36.232  53.796
38684W        W30608  47.702  26.710  52.888
38685W        W30609  34.732  18.735  49.705
38686W        W30610  46.215  37.207  50.608
38687W        W30611   1.772  43.214  50.595
38688W        W30612  19.762  29.214  51.060
38689W        W30613  46.219  35.715  53.332
38690W        W30614  33.742  38.717  49.704
38691W        W30615  31.737   8.264  52.445
38692W        W30616   0.770  14.260  50.608
38693W        W30617  21.218  25.750  51.526
38694W        W30618  24.236   3.778  53.801
38695W        W30619  44.219   2.265  51.504
38696W        W30620   4.783  47.681  52.447
38697W        W30621  19.251  41.196  51.069
38698W        W30622  36.235   6.279  51.047
38699W        W30623  10.746  17.243  52.889
38700W        W30624   8.284  47.203  51.511
38701W        W30625  14.730  14.765  53.343
38702W        W30626  36.215  11.260  50.580
38703W        W30627  42.691  16.762  50.139
38704W        W30628  39.710  28.205  51.959
38705W        W30629   5.272  32.217  53.792
38706W        W30630   5.261   1.796  53.802
38707W        W30631  28.706  27.205  53.804
38708W        W30632  19.721  31.204  49.693
38709W        W30633  37.218  24.753  53.343
38710W        W30634  42.227   5.255  50.122
38711W        W30635  17.735  37.226  50.622
38712W        W30636   7.772  38.688  50.592
38713W        W30637  25.743   0.751  52.874
38714W        W30638   7.253  35.221  52.875
38715W        W30639  35.193  43.224  50.144
38716W        W30640   0.788  46.698  50.603
38717W        W30641  26.719  18.760  51.973
38718W        W30642  43.727   7.253  52.433
38719W        W30643  34.231  45.678  50.580
38720W        W30644  43.697  36.702  51.051
38721W        W30645  33.699  20.742  53.814
38722W        W30646  33.734   5.268  52.868
38723W        W30647  16.257  18.763  50.166
38724W        W30648  20.749   3.781  52.444
38725W        W30649  26.219  23.249  53.325
38726W        W30650  46.684   6.280  50.144
38727W        W30651  20.719  19.747  51.521
38728W        W30652  30.241  45.187  53.803
38729W        W30653   4.261  31.728  50.135
38730W        W30654  12.753   8.281  49.686
38731W        W30655  47.688  32.243  52.445
38732W        W30656   3.247  36.700  51.991
38733W        W30657   5.777  17.239  49.668
38734W        W30658  18.742  42.693  51.069
38735W        W30659  25.257  23.722  53.340
38736W        W30660  34.198  39.721  51.530
38737W        W30661   3.283  38.233  53.814
38738W        W30662  41.210  42.710  51.078
38739W        W30663  45.187  22.753  51.968
38740W        W30664   3.758  16.263  52.900
38741W        W30665  34.203  29.208  50.143
38742W        W30666  35.697   0.754  50.583
38743W        W30667  13.245  30.707  52.436
38744W        W30668  38.715   0.754  50.146
38745W        W30669   4.252  39.212  49.696
38746W        W30670   2.788  24.756  51.064
38747W        W30671  43.705  27.234  51.057
38748W        W30672  45.682  17.766  51.499
38749W        W30673  25.712   3.256  51.985
38750W        W30674  11.771  34.207  51.053
38751W        W30675  44.218  21.258  52.446
38752W        W30676   3.255  23.212  52.413
38753W        W30677  13.755   3.292  53.353
38754W        W30678  28.740  13.745  51.491
38755W        W30679  28.250  37.201  52.860
38756W        W30680  39.198  32.223  52.874
38757W        W30681  45.192  12.244  52.440
38758W        W30682  24.229   5.276  52.903
38759W        W30683  46.713  34.235  52.904
38760W        W30684  21.747  30.206  51.949
38761W        W30685  16.760  33.209  53.337
38762W        W30686  27.748  16.231  51.526
38763W        W30687   0.783  21.758  50.158
38764W        W30688  43.192  41.683  53.805
38765W        W30689   5.773   5.283  53.806
38766W        W30690  30.729   3.781  53.807
38767W        W30691  19.765  46.188  49.686
38768W        W30692  32.200  19.219  53.791
38769W        W30693  47.715  43.691  49.689
38770W        W30694  10.748   4.766  52.861
38771W        W30695  22.218  48.202  52.894
38772W        W30696   7.741  38.201  53.806
38773W        W30697   2.281  11.236  51.526
38774W        W30698  37.228  24.753  50.602
38775W        W30699  22.262  46.206  53.814
38776W        W30700  16.747   3.274  52.892
38777W        W30701   7.745  11.255  50.147
38778W        W30702   4.768  35.699  49.685
38779W        W30703   4.274  10.271  51.964
38780W        W30704  27.211  31.207  51.534
38781W        W30705  33.740   7.239  50.591
38782W        W30706  14.237  43.704  53.801
38783W        W30707   6.773   2.285  49.680
38784W        W30708  19.739   7.277  51.072
38785W        W30709  18.744  13.748  50.599
38786W        W30710   2.779  23.720  50.124
38787W        W30711  22.715  47.715  52.885
38788W        W30712  41.681   7.260  51.966
38789W        W30713   8.762  24.739  52.896
38790W        W30714   2.770  23.722  51.072
38791W        W30715  25.255  33.707  51.986
38792W        W30716  13.773  25.712  50.161
38793W        W30717  14.730  15.265  49.683
38794W        W30718  18.734   9.779  53.327
38795W        W30719  43.713  39.723  53.773
38796W        W30720   6.284  26.738  52.413
38797W        W30721  11.761  17.745  52.416
38798W        W30722   1.279  24.737  49.706
38799W        W30723  44.701   1.764  53.344
38800W        W30724  43.190  23.727  51.522
38801W        W30725   3.745  34.719  52.871
38802W        W30726   9.754  29.744  51.049
38803W        W30727  24.715  11.263  53.321
38804W        W30728  23.224  36.233  49.701
38805W        W30729   8.761  19.223  50.617
38806W        W30730  16.256  21.252  49.696
38807W        W30731  27.731   7.261  52.877
38808W        W30732   7.785  38.189  50.604
38809W        W30733  31.698  37.717  49.674
38810W        W30734  47.185  17.751  50.163
38811W        W30735  25.738  40.723  50.131
38812W        W30736  40.717  40.725  51.074
38813W        W30737  31.733  31.738  50.151
38814W        W30738  17.257   1.792  53.775
38815W        W30739  44.687  23.758  52.413
38816W        W30740  13.236  43.207  51.059
38817W        W30741  42.225  40.726  51.496
38818W        W30742   9.250  28.238  50.591
38819W        W30743   0.258  16.242  51.962
38820W        W30744   7.763  21.260  53.813
38821W        W30745   6.270  25.250  51.514
38822W        W30746  13.268   1.276  53.816
38823W        W30747   0.785   5.263  53.332
38824W        W30748  34.702  44.183  51.040
38825W        W30749  11.256  35.729  53.350
38826W        W30750   7.272  23.727  53.333
38827W        W30751  13.756  18.762  51.533
38828W        W30752  28.215  27.719  51.958
38829W        W30753  18.750  28.227  53.791
38830W        W30754  42.199  38.703  49.692
38831W        W30755  44.197  47.714  53.352
38832W        W30756   4.293  14.253  53.805
38833W        W30757  31.247  37.719  51.040
38834W        W30758  28.225   2.278  52.431
38835W        W30759  43.221  21.753  53.355
38836W        W30760  38.729  19.750  50.149
38837W        W30761  34.213   0.258  49.686
38838W        W30762  14.727   6.255  51.041
38839W        W30763  40.204  11.762  50.151
38840W        W30764  16.250  25.737  49.701
38841W        W30765  22.254  20.247  51.979
38842W        W30766  31.201  12.735  53.813
38843W        W30767  30.719  23.224  53.333
38844W        W30768  27.722  38.728  53.354
38845W        W30769  39.230  36.228  53.353
38846W        W30770  12.774  37.709  50.127
38847W        W30771   0.781  46.683  51.495
38848W        W30772  32.741   8.780  52.409
38849W        W30773  28.729  20.244  52.405
38850W        W30774  22.224  39.699  52.900
38851W        W30775  35.714  17.257  50.159
38852W        W30776  28.706   3.762  51.063
38853W        W30777  44.188  12.268  50.619
38854W        W30778   7.243  30.221  52.416
38855W        W30779  42.701  30.208  49.688
38856W        W30780  13.751  40.711  51.522
38857W        W30781   7.279  43.196  53.803
38858W        W30782   5.288  45.700  53.319
38859W        W30783  29.728  21.720  49.678
38860W        W30784  47.707  27.211  51.074
38861W        W30785  16.251  41.206  50.601
38862W        W30786   4.279  24.259  50.155
38863W        W30787  25.218  20.728  53.347
38864W        W30788  34.731  33.239  51.970
38865W        W30789   2.258  46.678  51.955
38866W        W30790  48.175  36.227  51.982
38867W        W30791   3.791  35.204  51.075
38868W        W30792  14.241  43.716  52.434
38869W        W30793  12.258   6.270  51.963
38870W        W30794  33.207  42.725  52.426
38871W        W30795  16.730  21.257  51.517
38872W        W30796  48.186   0.770  53.320
38873W        W30797   9.251  25.729  52.903
38874W        W30798   3.770  13.750  53.330
38875W        W30799  33.236   2.770  52.413
38876W        W30800   9.742  38.732  51.054
38877W        W30801  15.758  30.732  50.140
38878W        W30802  12.751  37.191  51.070
38879W        W30803   9.778  31.712  50.591
38880W        W30804   0.753  11.245  53.339
38881W        W30805  37.194  32.740  53.334
38882W        W30806   9.738  26.207  53.773
38883W        W30807  21.221  19.225  51.038
38884W        W30808  10.275  20.753  51.490
38885W        W30809   4.792  41.702  51.078
38886W        W30810  30.223  29.744  53.337
38887W        W30811   3.778  29.714  51.063
38888W        W30812  44.208  31.211  51.035
38889W        W30813  39.712  45.696  50.128
38890W        W30814  14.272  14.769  51.040
38891W        W30815  21.733   3.258  51.518
38892W        W30816  32.221  36.221  50.141
38893W        W30817  41.197  20.763  51.518
38894W        W30818   7.766  33.712  50.619
38895W        W30819  36.227   1.291  50.607
38896W        W30820   3.264  14.746  49.686
38897W        W30821  41.227   0.766  52.868
38898W        W30822  35.197  22.244  49.706
38899W        W30823  33.726  31.208  50.149
38900W        W30824  10.273   7.245  52.888
38901W        W30825  20.251  43.679  53.353
38902W        W30826  39.722  13.234  51.505
38903W        W30827  37.192  30.223  51.529
38904W        W30828   6.761  23.719  53.816
38905W        W30829   7.738  25.746  53.345
38906W        W30830  35.731   2.752  50.128
38907W        W30831  34.706  48.189  53.804
38908W        W30832  10.762  30.737  53.782
38909W        W30833   2.776  24.741  50.124
38910W        W30834  17.727   3.286  50.593
38911W        W30835  40.705  37.728  53.338
38912W        W30836  40.725  22.739  53.345
38913W        W30837   1.253  46.691  51.062
38914W        W30838  10.770  19.230  51.070
38915W        W30839  19.746   5.788  52.901
38916W        W30840  17.748  16.737  50.581
38917W        W30841  15.745  38.688  51.975
38918W        W30842  17.726  43.201  52.863
38919W        W30843   5.273   4.780  51.983
38920W        W30844  45.185  23.719  52.434
38921W        W30845  35.196   2.293  53.788
38922W        W30846  40.709  12.745  53.814
38923W        W30847  16.725   5.759  53.773
38924W        W30848   2.247  14.243  53.332
38925W        W30849  26.732   9.737  53.317
38926W        W30850   1.281   5.283  51.054
38927W        W30851  14.252  11.741  53.323
38928W        W30852  14.244  46.191  51.521
38929W        W30853   8.262   9.268  51.509
38930W        W30854   7.750  23.758  53.352
38931W        W30855  28.251  21.754  50.131
38932W        W30856  20.734  39.204  51.965
38933W        W30857  40.695  10.755  52.408
38934W        W30858  20.726   3.284  51.078
38935W        W30859  16.728  33.729  53.341
38936W        W30860  23.227  47.720  51.529
38937W        W30861   5.741  43.682  53.356
38938W        W30862  46.204  35.725  53.796
38939W        W30863  13.746  32.241  51.036
38940W        W30864  13.735  34.198  50.611
38941W        W30865   0.289   6.242  51.971
38942W        W30866  12.754   2.248  51.947
38943W        W30867  32.229  46.208  52.892
38944W        W30868  19.764  33.719  51.509
38945W        W30869   3.758  34.704  52.405
38946W        W30870  32.245  25.217  51.492
38947W        W30871  12.258  26.239  52.869
38948W        W30872  10.782  10.240  52.885
38949W        W30873  45.700  35.713  51.979
38950W        W30874  48.171  24.220  53.796
38951W        W30875  23.233  24.215  52.431
38952W        W30876  40.713  39.225  50.601
38953W        W30877   4.285  19.757  50.609
38954W        W30878   0.798  28.237  52.439
38955W        W30879  45.184  39.231  53.804
38956W        W30880  18.767  29.707  51.954
38957W        W30881  20.744  20.222  50.140
38958W        W30882  45.177   8.754  52.421
38959W        W30883  41.224  47.193  52.430
38960W        W30884   0.785   5.248  51.987
38961W        W30885   2.266   5.284  50.132
38962W        W30886  36.219  26.245  51.499
38963W        W30887  12.769  39.229  53.800
38964W        W30888  44.724  24.257  51.492
38965W        W30889  15.736  24.711  51.979
38966W        W30890  35.728  12.743  49.690
38967W        W30891  27.226  26.736  49.704
38968W        W30892  41.219  27.745  52.426
38969W        W30893  17.225  14.746  53.809
38970W        W30894   1.754   6.277  53.356
38971W        W30895   4.756  18.741  51.949
38972W        W30896  43.719  14.763  49.696
38973W        W30897  46.678  35.226  51.076
38974W        W30898  30.735  45.198  50.132
38975W        W30899  48.179  44.712  52.901
38976W        W30900  37.222  31.214  52.418
38977W        W30901   8.267  47.689  49.680
38978W        W30902  21.760  30.234  50.581
38979W        W30903  29.204   7.756  53.796
38980W        W30904  23.760   5.759  53.331
38981W        W30905   5.273  21.231  52.899
38982W        W30906   8.265  22.241  52.418
38983W        W30907  48.195   1.257  51.955
38984W        W30908  25.720  40.209  53.334
38985W        W30909  42.698  33.707  52.886
38986W        W30910  29.239  35.739  53.337
38987W        W30911  40.717  26.231  52.409
38988W        W30912  47.715  19.719  49.686
38989W        W30913   3.293  23.752  52.881
38990W        W30914  13.246  22.719  51.499
38991W        W30915  13.758  44.713  53.776
38992W        W30916  35.211   5.276  53.778
38993W        W30917  26.241  20.736  51.490
38994W        W30918   0.287  17.760  52.424
38995W        W30919  41.220   7.778  51.968
38996W        W30920  13.750  29.204  51.526
38997W        W30921   2.280   7.764  50.617
38998W        W30922  14.267  18.267  53.799
38999W        W30923  19.722  29.206  50.597
39000W        W30924  27.229  36.199  51.508
39001W        W30925  14.758  31.739  50.607
39002W        W30926  14.773  37.737  52.423
39003W        W30927   4.275  26.715  51.054
39004W        W30928  43.689  17.757  50.141
39005W        W30929  22.730   2.752  51.066
39006W        W30930   2.746  37.703  51.059
39007W        W30931  33.222   5.266  49.709
39008W        W30932  16.736  15.250  53.804
39009W        W30933  31.719  15.737  50.608
39010W        W30934  10.753  44.696  50.159
39011W        W30935  26.218  11.248  53.327
39012W        W30936  19.757  25.231  51.059
39013W        W30937  32.720   3.282  49.710
39014W        W30938   4.253  34.742  52.441
39015W        W30939  30.242  29.213  52.865
39016W        W30940  21.739   9.755  51.079
39017W        W30941  29.243  24.218  53.781
39018W        W30942  46.684  37.231  50.137
39019W        W30943  33.721  34.736  49.695
39020W        W30944  42.702  38.209  51.973
39021W        W30945  34.199  31.726  51.044
39022W        W30946   3.287  14.240  53.326
39023W        W30947  33.210  42.183  50.598
39024W        W30948  33.739   7.778  53.801
39025W        W30949  26.248  10.263  53.350
39026W        W30950  20.733   9.251  52.898
39027W        W30951  29.250  17.222  53.774
39028W        W30952   0.751  48.211  52.871
39029W        W30953  32.205  14.741  52.436
39030W        W30954  34.214  26.214  53.325
39031W        W30955  29.229   3.774  49.677
39032W        W30956  34.739  21.251  53.805
39033W        W30957   9.238  42.202  52.430
39034W        W30958  47.694  41.210  53.806
39035W        W30959  32.246   2.278  53.316
39036W        W30960  39.229   9.254  53.806
39037W        W30961  32.729  36.194  49.676
39038W        W30962  17.753  27.215  53.348
39039W        W30963  12.731  43.682  53.784
39040W        W30964  16.762  17.227  50.601
39041W        W30965  26.754  39.729  52.432
39042W        W30966  18.256  19.226  50.586
39043W        W30967  37.236  20.719  53.815
39044W        W30968  46.193   4.290  51.060
39045W        W30969  14.738  10.775  53.787
39046W        W30970  45.195   1.792  52.434
39047W        W30971   4.790  28.724  53.799
39048W        W30972  13.761  32.724  52.871
39049W        W30973   0.292  14.251  52.420
39050W        W30974   2.768   0.289  51.947
39051W        W30975  19.266  20.229  50.125
39052W        W30976  42.720   1.786  50.122
39053W        W30977  23.222  20.732  53.817
39054W        W30978  37.727  16.273  50.143
39055W        W30979  25.757  28.748  53.361
39056W        W30980  16.767  44.718  49.676
39057W        W30981  37.213  29.215  52.893
39058W        W30982   8.764  35.233  52.901
39059W        W30983  20.247  19.259  51.506
39060W        W30984  27.727  12.259  50.594
39061W        W30985  18.233  17.733  52.885
39062W        W30986  13.268  29.246  51.076
39063W        W30987  32.743  13.239  52.893
39064W        W30988  47.204   2.754  52.902
39065W        W30989   4.768  18.746  51.522
39066W        W30990  47.700  19.756  53.356
39067W        W30991  41.715  21.761  50.580
39068W        W30992  17.743  22.262  52.430
39069W        W30993  38.199  25.239  53.806
39070W        W30994  19.222  36.698  51.967
39071W        W30995  29.225  36.198  52.405
39072W        W30996  47.201   9.764  53.317
39073W        W30997   5.269  24.234  49.670
39074W        W30998   1.755  34.230  49.703
39075W        W30999  13.245  32.238  51.978
39076W        W31000  10.769   6.283  50.160
39077W        W31001  18.250  42.684  53.797
39078W        W31002  21.249  46.194  53.325
39079W        W31003  41.721  44.677  52.904
39080W        W31004  25.246   9.240  53.786
39081W        W31005  42.709  27.740  52.894
39082W        W31006  13.746  44.189  51.037
39083W        W31007  35.208  21.249  52.875
39084W        W31008  31.245  32.231  53.806
39085W        W31009  20.254  24.742  50.140
39086W        W31010  30.711  46.185  50.132
39087W        W31011  18.722   6.263  52.420
39088W        W31012  47.672  26.751  51.517
39089W        W31013  29.210  13.255  52.433
39090W        W31014  30.227  45.201  52.446
39091W        W31015   0.754  12.235  52.883
39092W        W31016  45.217   2.788  50.127
39093W        W31017  33.236  36.225  53.805
39094W        W31018  47.703  23.255  51.950
39095W        W31019  36.223  10.242  51.958
39096W        W31020  48.200   4.257  53.349
39097W        W31021  34.731  29.707  50.604
39098W        W31022  32.729  16.244  50.583
39099W        W31023  15.257  31.208  53.325
39100W        W31024  11.267  38.732  51.514
39101W        W31025  42.186  12.751  49.680
39102W        W31026  26.252  45.218  53.323
39103W        W31027  47.196  45.698  51.060
39104W        W31028   2.755  21.260  50.143
39105W        W31029  19.248  40.191  51.990
39106W        W31030  23.248  31.711  51.497
39107W        W31031   9.254  36.213  53.360
39108W        W31032  31.231   1.782  51.063
39109W        W31033  15.256  32.741  53.340
39110W        W31034  36.200   4.288  49.668
39111W        W31035  17.738  14.242  52.886
39112W        W31036  39.692  44.722  51.965
39113W        W31037  13.271  33.242  49.665
39114W        W31038  20.731   6.250  53.781
39115W        W31039   9.247  40.720  50.142
39116W        W31040  35.223   0.792  49.670
39117W        W31041  19.263   4.268  52.445
39118W        W31042  35.224  27.724  49.697
39119W        W31043   6.275   8.750  51.057
39120W        W31044  15.246  34.198  51.059
39121W        W31045   4.292  16.733  53.787
39122W        W31046  29.737  11.739  51.073
39123W        W31047  32.709   5.245  49.698
39124W        W31048  22.717   5.246  53.358
39125W        W31049  18.262  24.247  51.991
39126W        W31050  21.238  42.704  53.798
39127W        W31051  29.220  19.237  53.800
39128W        W31052  44.714  38.194  52.448
39129W        W31053  11.753   5.754  51.532
39130W        W31054  17.736  37.205  51.990
39131W        W31055   4.277  36.698  53.781
39132W        W31056  23.716   5.278  53.353
39133W        W31057  18.736  42.720  52.407
39134W        W31058   6.748   0.250  51.970
39135W        W31059  24.228  23.744  50.148
39136W        W31060   9.275  36.226  51.530
39137W        W31061  12.766   2.759  52.446
39138W        W31062   6.762   4.784  51.521
39139W        W31063   3.260  25.255  52.878
39140W        W31064   0.284  34.716  53.811
39141W        W31065   0.785   0.794  52.879
39142W        W31066  36.204  34.200  49.675
39143W        W31067  23.258  36.195  50.590
39144W        W31068   9.776   7.742  50.580
39145W        W31069  39.205  43.181  53.799
39146W        W31070   2.787  12.265  51.521
39147W        W31071  28.742   2.285  50.142
39148W        W31072  34.198  41.723  52.900
39149W        W31073  32.204  16.270  50.608
39150W        W31074  13.768  30.219  51.971
39151W        W31075  48.196  31.736  51.495
39152W        W31076   6.254  32.236  52.891
39153W        W31077  35.702  21.228  49.674
39154W        W31078  28.232  18.254  51.511
39155W        W31079   2.293  37.215  51.062
39156W        W31080  19.760  47.679  51.500
39157W        W31081  42.198  25.722  51.984
39158W        W31082  21.745  36.711  51.497
39159W        W31083  42.188  23.721  53.337
39160W        W31084  26.224  19.223  52.871
39161W        W31085  40.215   8.751  49.696
39162W        W31086  41.727  19.237  52.441
39163W        W31087  36.717   3.745  51.953
39164W        W31088  15.758  35.224  53.355
39165W        W31089  10.282  34.722  51.510
39166W        W31090  45.198   8.757  51.984
39167W        W31091  38.203   0.253  52.440
39168W        W31092  45.675  36.723  50.602
39169W        W31093  26.208  15.235  49.669
39170W        W31094  34.225  42.228  49.667
39171W        W31095  18.237   4.291  52.873
39172W        W31096  41.226  15.751  49.704
39173W        W31097  23.242  31.231  53.325
39174W        W31098  10.740  41.701  51.490
39175W        W31099   7.753  14.233  50.165
39176W        W31100   8.238   1.252  50.143
39177W        W31101  40.231  26.256  52.880
39178W        W31102  12.262  29.733  51.035
39179W        W31103  20.718  10.245  50.584
39180W        W31104   3.292  10.763  50.614
39181W        W31105  40.697  37.697  51.987
39182W        W31106  25.228  15.231  53.322
39183W        W31107  45.687  26.732  51.976
39184W        W31108  44.701  41.187  52.420
39185W        W31109  10.751  13.745  51.051
39186W        W31110  17.754  32.712  49.698
39187W        W31111   3.761  18.242  53.793
39188W        W31112   9.276  23.240  51.531
39189W        W31113  21.762   3.257  50.622
39190W        W31114   9.744  22.250  49.692
39191W        W31115  30.734   9.772  53.354
39192W        W31116  33.728  37.215  52.875
39193W        W31117  19.718  15.772  50.149
39194W        W31118  26.747  11.275  52.902
39195W        W31119  11.241   8.258  53.805
39196W        W31120  14.761  39.717  53.350
39197W        W31121   7.745  48.191  53.784
39198W        W31122  35.726  33.210  50.159
39199W        W31123   4.264   8.777  53.316
39200W        W31124   6.277  14.245  52.447
39201W        W31125   8.261  14.756  53.331
39202W        W31126  46.707  35.234  49.702
39203W        W31127  24.221  32.219  53.351
39204W        W31128  14.775  36.721  53.329
39205W        W31129   8.276  43.686  52.862
39206W        W31130  45.195  36.717  50.158
39207W        W31131   3.258  24.726  51.069
39208W        W31132  20.765  47.713  49.706
39209W        W31133  13.255  38.222  50.581
39210W        W31134  26.737  19.728  50.165
39211W        W31135   2.264  12.269  51.047
39212W        W31136  31.745  26.752  51.044
39213W        W31137  35.731   5.263  50.146
39214W        W31138  38.736  25.742  51.523
39215W        W31139  39.722   5.758  53.339
39216W        W31140  35.707  11.775  49.696
39217W        W31141   3.249  19.760  50.129
39218W        W31142  39.226  18.236  50.140
39219W        W31143  37.737  36.191  50.604
39220W        W31144  42.182   4.789  52.884
39221W        W31145  28.730  31.248  51.535
39222W        W31146  24.240   7.765  50.620
39223W        W31147  33.744   0.753  52.418
39224W        W31148  16.233  30.205  50.618
39225W        W31149   7.248  45.206  52.414
39226W        W31150  39.685  25.718  50.129
39227W        W31151   7.254  23.229  51.511
39228W        W31152  42.193  22.715  51.968
39229W        W31153  47.720  19.264  51.071
39230W        W31154  35.714  16.727  50.144
39231W        W31155  19.723   3.791  51.065
39232W        W31156  37.211  34.710  53.350
39233W        W31157  36.694  15.232  50.123
39234W        W31158  12.262   2.267  50.619
39235W        W31159  12.762  17.239  52.896
39236W        W31160  24.249  35.724  53.345
39237W        W31161  19.733  18.722  52.439
39238W        W31162  17.739   6.744  53.340
39239W        W31163  46.698  37.208  53.328
39240W        W31164  44.222   9.252  52.446
39241W        W31165  24.721   1.755  50.607
39242W        W31166  44.207  45.211  53.808
39243W        W31167  35.222  12.752  50.577
39244W        W31168  13.242  36.723  50.607
39245W        W31169  47.206  25.256  51.499
39246W        W31170   4.264  32.234  51.951
39247W        W31171  18.240  38.196  51.491
39248W        W31172  38.206  46.193  51.048
39249W        W31173  16.238  38.198  53.772
39250W        W31174  29.717  19.244  52.412
39251W        W31175  40.709  37.217  51.987
39252W        W31176  19.249  24.254  50.127
39253W        W31177  45.205  26.713  51.511
39254W        W31178  33.725  25.223  52.430
39255W        W31179  32.215  18.264  49.670
39256W        W31180   1.297   7.784  50.130
39257W        W31181  13.736  20.253  51.987
39258W        W31182   2.777  27.744  52.871
39259W        W31183  23.250  12.260  51.502
39260W        W31184  22.227  23.760  51.053
39261W        W31185  34.725  33.215  50.163
39262W        W31186   2.760  39.195  51.949
39263W        W31187   1.765   1.770  50.621
39264W        W31188   2.279   3.270  50.156
39265W        W31189  24.224  38.718  51.515
39266W        W31190  33.703  13.229  51.513
39267W        W31191  47.194  34.197  53.804
39268W        W31192  44.682  20.757  53.783
39269W        W31193   2.261  26.736  50.156
39270W        W31194  26.741  38.192  53.338
39271W        W31195  30.711  23.725  51.977
39272W        W31196  38.193  25.235  51.525
39273W        W31197  10.258  18.767  51.955
39274W        W31198  18.266  16.734  52.888
39275W        W31199  25.250  12.733  50.622
39276W        W31200  21.227  18.237  51.502
39277W        W31201   7.756   6.775  49.682
39278W        W31202  26.253   8.250  49.668
39279W        W31203  16.240  26.718  50.149
39280W        W31204  22.758  44.717  51.511
39281W        W31205  20.243  37.708  52.407
39282W        W31206  23.730   7.279  51.979
39283W        W31207   1.290   8.770  50.600
39284W        W31208  14.234  32.717  49.710
39285W        W31209  13.235   4.791  52.875
39286W        W31210  30.714  46.676  51.983
39287W        W31211   9.273  28.726  49.674
39288W        W31212  26.733  14.268  50.582
39289W        W31213  24.727  36.710  50.128
39290W        W31214  30.745  41.708  52.418
39291W        W31215  26.224  24.759  51.043
39292W        W31216  19.219  37.190  53.345
39293W        W31217  40.703   5.262  53.800
39294W        W31218  19.745  11.278  51.048
39295W        W31219  25.219  23.736  50.145
39296W        W31220  33.727  19.223  53.355
39297W        W31221   5.786  34.238  50.156
39298W        W31222   6.749  11.771  52.895
39299W        W31223   2.748  45.705  51.512
39300W        W31224  38.718  15.240  52.443
39301W        W31225  28.748   1.762  51.514
39302W        W31226  14.238   7.243  51.961
39303W        W31227  36.723  40.203  52.420
39304W        W31228  11.236  46.687  52.412
39305W        W31229  44.202   3.756  53.793
39306W        W31230  38.210  16.728  51.972
39307W        W31231   2.277   0.259  50.145
39308W        W31232  46.719   3.276  51.047
39309W        W31233  37.216  37.209  53.359
39310W        W31234  45.208  29.704  52.437
39311W        W31235  18.256  29.725  50.587
39312W        W31236  16.246  35.739  50.161
39313W        W31237   3.286  12.738  51.969
39314W        W31238  16.739  37.196  52.883
39315W        W31239   5.283  10.757  50.133
39316W        W31240  15.261  10.246  50.608
39317W        W31241  41.210  27.709  52.895
39318W        W31242  39.218  11.273  52.423
39319W        W31243  44.695   8.250  52.412
39320W        W31244  22.257  23.715  51.497
39321W        W31245  19.235  14.754  50.125
39322W        W31246  13.745  15.768  50.121
39323W        W31247  32.245  22.752  53.790
39324W        W31248   4.752   1.283  53.338
39325W        W31249  29.225  41.723  51.509
39326W        W31250  46.722  38.699  50.162
39327W        W31251   0.777   9.777  52.431
39328W        W31252  30.235  21.735  51.968
39329W        W31253  43.218  28.240  51.973
39330W        W31254  29.225   2.792  50.156
39331W        W31255   5.243   7.737  50.612
39332W        W31256  40.718  22.226  51.077
39333W        W31257  20.734  28.241  52.873
39334W        W31258  37.203  13.256  52.435
39335W        W31259   5.273  32.234  53.339
39336W        W31260  24.255  21.726  53.328
39337W        W31261   3.777   9.753  52.870
39338W        W31262  28.237  22.261  51.062
39339W        W31263  17.752  24.256  52.430
39340W        W31264  25.215  18.259  51.533
39341W        W31265  24.233   8.266  51.040
39342W        W31266  11.759   8.256  51.532
39343W        W31267  48.214  34.238  52.875
39344W        W31268   1.288  10.250  51.495
39345W        W31269  14.769   1.763  51.038
39346W        W31270  36.228   5.747  50.582
39347W        W31271  14.772  44.703  53.799
39348W        W31272  43.195  31.240  51.513
39349W        W31273   4.750  32.232  51.039
39350W        W31274  22.214  39.724  51.962
39351W        W31275  19.718  21.226  52.888
39352W        W31276  23.727  35.198  50.137
39353W        W31277  14.253  39.187  49.683
39354W        W31278  46.192   0.784  50.612
39355W        W31279  47.213  19.752  53.325
39356W        W31280  41.698  36.215  51.506
39357W        W31281  46.692  46.721  53.790
39358W        W31282  36.739  19.249  51.496
39359W        W31283  19.242  34.698  53.341
39360W        W31284   5.285  13.247  53.340
39361W        W31285  19.740  23.233  51.067
39362W        W31286   7.264  11.770  52.417
39363W        W31287  19.231   0.772  52.868
39364W        W31288  29.232  36.699  53.796
39365W        W31289  27.736  33.199  51.963
39366W        W31290  13.269   2.788  51.503
39367W        W31291  17.258   4.275  52.417
39368W        W31292   3.248  22.759  50.616
39369W        W31293  39.204   6.258  52.860
39370W        W31294  12.777  15.253  50.142
39371W        W31295  36.719  32.731  52.861
39372W        W31296  44.210  13.254  49.690
39373W        W31297  37.216  23.760  50.130
39374W        W31298   3.265  26.244  53.782
39375W        W31299  12.249   9.742  53.807
39376W        W31300  34.742  24.229  53.785
39377W        W31301  34.697  46.700  50.126
39378W        W31302  36.714  46.180  51.526
39379W        W31303   2.792  17.738  51.079
39380W        W31304  33.705  38.223  53.331
39381W        W31305  47.213  18.227  51.982
39382W        W31306  42.212   9.275  51.534
39383W        W31307  38.195   9.740  51.508
39384W        W31308  25.714  25.753  50.612
39385W        W31309   8.761  16.253  52.902
39386W        W31310  24.740   2.764  52.867
39387W        W31311  28.247   4.753  53.796
39388W        W31312  25.757  39.699  50.143
39389W        W31313  44.200  10.262  52.426
39390W        W31314   2.752  12.243  50.613
39391W        W31315  15.725  47.183  52.873
39392W        W31316  42.682   7.253  50.147
39393W        W31317  35.737  15.741  51.057
39394W        W31318  40.725   5.277  50.602
39395W        W31319  30.703  32.214  51.034
39396W        W31320  25.737  12.748  53.324
39397W        W31321  40.230  24.259  52.409
39398W        W31322  31.732   1.271  52.436
39399W        W31323  22.716  35.203  49.672
39400W        W31324  43.719  15.270  51.503
39401W        W31325  33.228  44.716  53.326
39402W        W31326   6.753  47.707  51.041
39403W        W31327  26.730  17.267  50.604
39404W        W31328   3.293   0.777  52.416
39405W        W31329   4.265  40.226  53.357
39406W        W31330   1.273  27.243  51.074
39407W        W31331  38.207  38.700  50.584
39408W        W31332   2.761   4.266  51.508
39409W        W31333  13.232  47.690  53.813
39410W        W31334  17.759  13.767  51.961
39411W        W31335   9.757  29.735  53.799
39412W        W31336  20.245  42.187  51.040
39413W        W31337  40.215  40.710  49.669
39414W        W31338  17.245  16.259  50.609
39415W        W31339  33.723  34.210  50.593
39416W        W31340   6.752  11.776  50.134
39417W        W31341  43.203  32.696  52.863
39418W        W31342   9.774  23.218  51.525
39419W        W31343  24.220  16.769  51.047
39420W        W31344  11.762   0.261  51.954
39421W        W31345  25.225  30.726  50.590
39422W        W31346  29.707   1.775  52.437
39423W        W31347  47.673  24.260  51.992
39424W        W31348  41.705  28.708  52.416
39425W        W31349   2.782  15.748  53.330
39426W        W31350   0.763  35.217  53.775
39427W        W31351  38.196   3.747  51.077
39428W        W31352  47.182  25.232  50.589
39429W        W31353  22.252  14.250  49.679
39430W        W31354   8.747   3.271  52.439
39431W        W31355  25.743  27.722  49.702
39432W        W31356  25.216  44.699  50.601
39433W        W31357  44.716   9.279  50.616
39434W        W31358   4.269  44.190  51.041
39435W        W31359   8.752  16.228  52.447
39436W        W31360  33.702  25.240  50.145
39437W        W31361  37.232  18.728  52.866
39438W        W31362  43.696  24.738  53.318
39439W        W31363  28.207  47.191  49.701
39440W        W31364  15.735  16.752  51.053
39441W        W31365  37.702  20.763  51.951
39442W        W31366  10.246  27.705  51.966
39443W        W31367  28.209  31.244  53.322
39444W        W31368   8.254  24.230  53.791
39445W        W31369   2.762   2.770  49.677
39446W        W31370  29.708  41.215  51.039
39447W        W31371  13.261  17.259  50.617
39448W        W31372  21.255  17.727  49.688
39449W        W31373   7.277  31.207  50.581
39450W        W31374  35.736  43.193  50.154
39451W        W31375  16.762  22.216  53.805
39452W        W31376   7.778  11.752  50.590
39453W        W31377  43.719  40.710  50.142
39454W        W31378  29.206  48.179  52.408
39455W        W31379  15.747  28.752  51.530
39456W        W31380   2.255  10.268  53.783
39457W        W31381  39.700  36.733  51.508
39458W        W31382  25.257  46.182  49.685
39459W        W31383  33.196   6.756  53.800
39460W        W31384  43.182   7.283  50.165
39461W        W31385  40.221  30.228  50.136
39462W        W31386  32.700  16.737  50.143
39463W        W31387   9.268  37.710  50.613
39464W        W31388  39.695  28.220  49.666
39465W        W31389  43.181  20.720  52.409
39466W        W31390  46.217   7.783  49.709
39467W        W31391  32.228  47.716  51.519
39468W        W31392  18.251   8.748  53.796
39469W        W31393  41.717  25.251  52.414
39470W        W31394  16.725  12.770  50.137
39471W        W31395   6.760   8.270  52.872
39472W        W31396  13.742  37.209  53.811
39473W        W31397  12.238  13.740  50.165
39474W        W31398  23.240  15.738  51.953
39475W        W31399   9.238   1.261  51.981
39476W        W31400  42.222   2.774  49.703
39477W        W31401  47.201   4.271  52.426
39478W        W31402  16.763  32.732  51.042
39479W        W31403  32.728  26.241  53.347
39480W        W31404  46.675  43.186  50.619
39481W        W31405   4.261  21.263  51.041
39482W        W31406   9.743  40.728  50.595
39483W        W31407  37.737   2.253  50.581
39484W        W31408   1.295   1.763  50.599
39485W        W31409  19.242  13.774  52.902
39486W        W31410  25.749  40.695  51.063
39487W        W31411  44.212  46.180  53.810
39488W        W31412  42.686  42.222  53.800
39489W        W31413  33.225   5.278  50.148
39490W        W31414  43.723  47.687  52.885
39491W        W31415  27.748  32.222  51.497
39492W        W31416  17.236  45.202  52.434
39493W        W31417  46.698  38.729  53.345
39494W        W31418  33.213  38.694  51.990
39495W        W31419  13.772  24.748  52.863
39496W        W31420   9.759  44.188  50.150
39497W        W31421  20.735  33.196  53.324
39498W        W31422  34.742  13.766  51.987
39499W        W31423  14.262  36.706  53.328
39500W        W31424  29.248  29.236  49.702
39501W        W31425   5.264  30.727  51.988
39502W        W31426   5.245  34.218  51.949
39503W        W31427  22.237   6.747  51.076
39504W        W31428  15.273   8.254  49.682
39505W        W31429   5.767  27.247  50.579
39506W        W31430   2.270  25.744  51.956
39507W        W31431   6.248  25.712  50.613
39508W        W31432  21.740   9.747  53.776
39509W        W31433  26.222   9.763  53.797
39510W        W31434   5.757  36.729  53.350
39511W        W31435  19.759  26.236  50.616
39512W        W31436  10.752  36.691  53.781
39513W        W31437   6.741  24.711  52.897
39514W        W31438  30.705  35.221  53.336
39515W        W31439   8.778  10.759  52.879
39516W        W31440   7.246  28.217  50.129
39517W        W31441  13.242  21.265  51.508
39518W        W31442  32.699   3.759  51.516
39519W        W31443  41.186  24.253  52.405
39520W        W31444  12.270  15.724  51.953
39521W        W31445  23.739  25.242  51.534
39522W        W31446  44.721  27.253  52.879
39523W        W31447   6.287  25.233  50.583
39524W        W31448  17.735  36.210  50.581
39525W        W31449   2.765  11.771  50.157
39526W        W31450   5.284  17.744  49.677
39527W        W31451  43.206   7.763  50.145
39528W        W31452  40.216   5.264  53.801
39529W        W31453  27.206  39.230  50.149
39530W        W31454  28.746  27.241  52.879
39531W        W31455  41.716  45.187  51.500
39532W        W31456   1.794  34.204  50.621
39533W        W31457  40.726  30.745  51.047
39534W        W31458  13.744   5.268  49.704
39535W        W31459  41.729  32.745  51.064
39536W        W31460  36.226  46.678  51.490
39537W        W31461  26.731  24.223  53.781
39538W        W31462  35.733  44.208  50.591
39539W        W31463  37.736  39.195  51.064
39540W        W31464  32.726  10.759  51.491
39541W        W31465   2.248  27.741  51.958
39542W        W31466   4.287  31.732  53.809
39543W        W31467   3.247  17.248  53.324
39544W        W31468  48.199  28.721  52.880
39545W        W31469  20.720  39.727  51.510
39546W        W31470  29.215  47.705  53.787
39547W        W31471   9.774  12.768  52.890
39548W        W31472  36.229  32.718  53.813
39549W        W31473  48.194  20.261  53.788
39550W        W31474  23.741  11.258  52.872
39551W        W31475  35.236   3.246  50.590
39552W        W31476  13.277  30.214  50.134
39553W        W31477  10.782  10.748  53.317
39554W        W31478  17.727  10.759  52.897
39555W        W31479  16.231   4.271  51.983
39556W        W31480  33.238   7.283  53.345
39557W        W31481  22.262  38.198  50.165
39558W        W31482  33.714  33.199  51.523
39559W        W31483   6.246  37.208  53.344
39560W        W31484   5.284   1.762  51.075
39561W        W31485  36.195   1.288  52.404
39562W        W31486  24.754  20.244  53.322
39563W        W31487  27.706  10.767  53.805
39564W        W31488  27.253   4.279  51.965
39565W        W31489  47.716  22.724  50.621
39566W        W31490  26.710   8.749  53.326
39567W        W31491  23.261   8.738  53.793
39568W        W31492  20.717   0.257  51.969
39569W        W31493  18.261  47.703  51.977
39570W        W31494  27.723  25.213  51.051
39571W        W31495  36.705  45.675  52.406
39572W        W31496  13.741  40.699  50.614
39573W        W31497  12.275   9.736  52.404
39574W        W31498  47.208  32.738  53.808
39575W        W31499  26.222  17.251  51.953
39576W        W31500  15.748  17.268  52.410
39577W        W31501  12.732  48.204  51.961
39578W        W31502   8.247  46.720  49.710
39579W        W31503   4.258   8.774  52.435
39580W        W31504  25.747  22.222  52.893
39581W        W31505  15.229   5.283  50.607
39582W        W31506  33.695   8.757  51.533
39583W        W31507  16.231   4.789  52.861
39584W        W31508  45.718  27.251  52.868
39585W        W31509  31.203  31.720  50.157
39586W        W31510  11.269  30.219  50.137
39587W        W31511  41.696  26.732  49.690
39588W        W31512  32.722   0.280  49.673
39589W        W31513  22.224  24.725  51.978
39590W        W31514  27.208  16.249  51.503
39591W        W31515   5.759  19.242  50.600
39592W        W31516  26.255  35.201  52.435
39593W        W31517   4.755  46.178  50.150
39594W        W31518  46.216  43.691  52.440
39595W        W31519  42.182  11.755  51.064
39596W        W31520   1.777  26.242  51.043
39597W        W31521  27.254   3.281  51.058
39598W        W31522  24.212  37.705  52.899
39599W        W31523  12.731  39.210  50.135
39600W        W31524  12.771  19.726  51.061
39601W        W31525   2.295  31.734  50.124
39602W        W31526  40.712  12.243  52.406
39603W        W31527  40.713  45.720  53.791
39604W        W31528   6.281  26.225  52.405
39605W        W31529  41.717  34.217  49.695
39606W        W31530   6.766  13.237  51.514
39607W        W31531  27.710  35.209  49.709
39608W        W31532  26.249   1.260  53.323
39609W        W31533   1.289  11.733  52.895
39610W        W31534  14.752  11.742  51.495
39611W        W31535  39.211   8.238  52.408
39612W        W31536  39.199   2.281  51.039
39613W        W31537  30.202  21.737  52.432
39614W        W31538  40.212  48.198  53.350
39615W        W31539   6.256   7.247  52.435
39616W        W31540  16.267  26.233  51.504
39617W        W31541   6.256  15.749  52.431
39618W        W31542  16.265   4.767  50.129
39619W        W31543  27.718  41.720  53.323
39620W        W31544  31.725  43.722  53.318
39621W        W31545  29.746  22.230  52.416
39622W        W31546  27.212  23.752  51.497
39623W        W31547  33.228  23.220  51.499
39624W        W31548  11.250   9.778  52.891
39625W        W31549  30.227  37.199  50.138
39626W        W31550  21.228  40.206  50.140
39627W        W31551  14.272  24.730  52.865
39628W        W31552   7.738  13.757  51.982
39629W        W31553  35.714  41.695  50.164
39630W        W31554  16.746  39.727  53.793
39631W        W31555  27.236  44.684  52.866
39632W        W31556  39.199  46.192  50.593
39633W        W31557  24.748  18.249  50.593
39634W        W31558   6.242  26.724  53.815
39635W        W31559  42.727  47.214  49.696
39636W        W31560   7.745  22.236  51.528
39637W        W31561  19.724  27.748  51.526
39638W        W31562  32.203  35.216  50.587
39639W        W31563  13.235  13.752  53.337
39640W        W31564   2.282  30.203  51.522
39641W        W31565  47.187  36.722  51.072
39642W        W31566  48.188  44.205  50.123
39643W        W31567   5.268  21.220  52.419
39644W        W31568  25.714  17.231  51.491
39645W        W31569  31.735  43.212  49.676
39646W        W31570   2.746  39.213  52.433
39647W        W31571  19.260  41.730  51.505
39648W        W31572  26.743  31.227  53.802
39649W        W31573  40.698  44.225  50.154
39650W        W31574  15.731  38.705  50.585
39651W        W31575  30.733   5.261  51.948
39652W        W31576  18.755  25.738  53.358
39653W        W31577  35.696   5.275  51.065
39654W        W31578   2.294  14.745  51.530
39655W        W31579  47.675  44.723  49.685
39656W        W31580  34.737  21.759  50.157
39657W        W31581  44.194  42.716  50.581
39658W        W31582   7.763  40.213  50.581
39659W        W31583  29.241  11.242  51.078
39660W        W31584   1.774  30.730  51.962
39661W        W31585  31.243  14.237  52.872
39662W        W31586  21.747  19.739  52.873
39663W        W31587  42.708  15.271  53.789
39664W        W31588   7.286   1.254  51.981
39665W        W31589   1.259  25.726  49.694
39666W        W31590  25.716  33.213  50.125
39667W        W31591  32.239  15.232  51.985
39668W        W31592   1.269  32.234  50.127
39669W        W31593  37.735  30.730  52.894
39670W        W31594  46.218  30.200  50.135
39671W        W31595  20.761  11.277  51.494
39672W        W31596   5.248  18.722  53.359
39673W        W31597  23.228  23.740  51.050
39674W        W31598   6.777   4.250  53.793
39675W        W31599  30.230  10.782  53.316
39676W        W31600  40.712  35.197  50.145
39677W        W31601  36.230  22.236  52.440
39678W        W31602  35.705  21.758  52.425
39679W        W31603  43.212  15.738  51.957
39680W        W31604  27.750  28.745  51.987
39681W        W31605  26.231   4.280  51.064
39682W        W31606  28.741  37.238  50.617
39683W        W31607  45.708  30.732  51.964
39684W        W31608  12.271  15.261  50.143
39685W        W31609  14.738  19.224  50.131
39686W        W31610  46.679  40.226  51.504
39687W        W31611  33.233  47.191  51.961
39688W        W31612  31.229   7.254  52.869
39689W        W31613  10.771  47.192  52.897
39690W        W31614   4.279  25.237  51.983
39691W        W31615  16.225  21.746  51.500
39692W        W31616   4.271   3.781  52.436
39693W        W31617   4.767  24.257  53.774
39694W        W31618  48.187  14.274  49.705
39695W        W31619  29.235  46.683  53.319
39696W        W31620  12.734  22.744  53.350
39697W        W31621  12.233   8.773  53.809
39698W        W31622  46.675  27.233  51.071
39699W        W31623   5.785  26.222  51.530
39700W        W31624   5.761  45.717  52.902
39701W        W31625  14.276  47.694  53.345
39702W        W31626  14.238  10.758  53.330
39703W        W31627   9.269  32.237  51.973
39704W        W31628  43.191  23.238  53.343
39705W        W31629  41.188  31.705  51.968
39706W        W31630  12.768  39.711  49.677
39707W        W31631  43.179  38.697  51.057
39708W        W31632  31.245  29.214  50.157
39709W        W31633  46.188  19.747  53.800
39710W        W31634  36.221  11.251  53.341
39711W        W31635   9.745   6.763  49.671
39712W        W31636  45.191  10.276  50.157
39713W        W31637  28.225  30.718  53.779
39714W        W31638  14.771   4.777  50.622
39715W        W31639  35.195  33.196  51.520
39716W        W31640   4.776  41.206  51.513
39717W        W31641  38.227  41.193  51.531
39718W        W31642  28.731  34.222  50.131
39719W        W31643   2.264  34.229  51.068
39720W        W31644   8.771  16.724  52.880
39721W        W31645  18.757  36.721  51.981
39722W        W31646  38.230  32.731  50.159
39723W        W31647   4.773  12.750  49.679
39724W        W31648  31.715  20.736  49.693
39725W        W31649   0.276  42.700  50.618
39726W        W31650  23.753  45.190  50.123
39727W        W31651  38.710  11.263  50.149
39728W        W31652  37.193  25.237  51.501
39729W        W31653  17.724  13.254  51.962
39730W        W31654  43.687  41.704  52.447
39731W        W31655  37.725  25.224  50.609
39732W        W31656  19.256  34.198  52.405
39733W        W31657  33.214  46.222  51.065
39734W        W31658   7.771  27.220  51.966
39735W        W31659   3.262  18.268  52.883
39736W        W31660  47.216   4.289  51.529
39737W        W31661   5.288   5.763  52.437
39738W        W31662  11.233  22.234  49.683
39739W        W31663   0.260  30.741  53.807
39740W        W31664  15.763  12.740  50.589
39741W        W31665  32.716  41.194  53.784
39742W        W31666  27.210  26.240  52.867
39743W        W31667  11.743   9.766  53.804
39744W        W31668  44.178  34.242  52.411
39745W        W31669  23.722  20.721  49.671
39746W        W31670  32.713  28.727  53.788
39747W        W31671   5.249  43.727  52.873
39748W        W31672  28.245  30.225  50.584
39749W        W31673   0.296  36.729  50.599
39750W        W31674   5.265  29.227  51.974
39751W        W31675  41.696  42.721  51.959
39752W        W31676  29.216  21.253  49.707
39753W        W31677  43.696   4.244  52.885
39754W        W31678  30.237  37.721  52.902
39755W        W31679  17.249  39.695  51.973
39756W        W31680  40.686   3.793  51.048
39757W        W31681  27.241  41.709  49.691
39758W        W31682  37.201  41.688  51.510
39759W        W31683  16.755   4.787  51.067
39760W        W31684  11.268  11.751  53.801
39761W        W31685  24.744  13.756  52.904
39762W        W31686  14.776  40.223  49.695
39763W        W31687  40.200   8.278  52.882
39764W        W31688  10.269  21.227  51.961
39765W        W31689  32.714   8.281  50.121
39766W        W31690  38.191  23.241  51.495
39767W        W31691  28.715  36.724  52.435
39768W        W31692  44.193  13.276  52.860
39769W        W31693  17.269  38.210  52.882
39770W        W31694  32.733  20.726  53.815
39771W        W31695  20.228  13.760  50.581
39772W        W31696  11.233  34.197  51.979
39773W        W31697   1.253  27.233  51.521
39774W        W31698   3.746  37.209  51.955
39775W        W31699  46.674   3.266  50.596
39776W        W31700  35.733  46.193  50.601
39777W        W31701   3.270  29.248  50.589
39778W        W31702   1.781  13.750  50.160
39779W        W31703  11.769  12.731  53.331
39780W        W31704  10.740   4.282  52.882
39781W        W31705  25.736   4.290  51.978
39782W        W31706  40.186   5.783  53.813
39783W        W31707   6.258  18.269  53.348
39784W        W31708  23.236  40.187  49.676
39785W        W31709  23.717  25.709  50.622
39786W        W31710  20.266   7.782  51.079
39787W        W31711  36.193   9.766  53.339
39788W        W31712  25.241   0.295  53.812
39789W        W31713  30.736  39.187  52.892
39790W        W31714  30.741  43.721  50.581
39791W        W31715  37.709  25.221  51.948
39792W        W31716  36.690  30.233  51.978
39793W        W31717  15.731  33.232  50.587
39794W        W31718  42.699  38.726  52.899
39795W        W31719  45.707  26.752  52.436
39796W        W31720  31.738  32.696  53.812
39797W        W31721  37.736  18.252  51.961
39798W        W31722  33.201  44.202  51.045
39799W        W31723  29.723   5.777  51.953
39800W        W31724   4.751  12.732  53.328
39801W        W31725  25.732  28.252  50.585
39802W        W31726  23.755  44.222  53.785
39803W        W31727   4.749  23.718  50.604
39804W        W31728  37.201   8.765  53.782
39805W        W31729  46.721  24.718  53.320
39806W        W31730  44.190  12.761  50.586
39807W        W31731  32.217   7.275  50.586
39808W        W31732  20.246  40.215  52.885
39809W        W31733  31.226  19.745  53.360
39810W        W31734   0.767  28.224  53.358
39811W        W31735  36.239   1.749  51.960
39812W        W31736  10.764   7.779  50.139
39813W        W31737  12.275  37.218  49.695
39814W        W31738  43.707   2.792  50.151
39815W        W31739  40.186  46.188  53.360
39816W        W31740  13.230  23.225  50.592
39817W        W31741  23.733  24.747  49.696
39818W        W31742  42.721  24.712  50.125
39819W        W31743   4.279  25.258  51.528
39820W        W31744   0.780   3.784  53.797
39821W        W31745  37.194  36.235  51.952
39822W        W31746  44.207  25.250  52.435
39823W        W31747   6.745  45.204  53.803
39824W        W31748  39.699  39.226  50.592
39825W        W31749  24.256  43.227  51.981
39826W        W31750  23.736   4.259  49.668
39827W        W31751  44.721   0.775  51.513
39828W        W31752  47.196   6.258  50.590
39829W        W31753   1.752   7.784  53.358
39830W        W31754   1.291  43.227  50.130
39831W        W31755  16.259  20.245  51.509
39832W        W31756  25.745  31.700  51.961
39833W        W31757   9.758  33.737  50.609
39834W        W31758  30.248   4.279  53.343
39835W        W31759  21.740  44.711  50.579
39836W        W31760  22.725   0.795  53.342
39837W        W31761   8.736  33.202  50.148
39838W        W31762   8.756  46.701  49.674
39839W        W31763  22.218  47.221  51.514
39840W        W31764   9.240  16.723  49.668
39841W        W31765   2.252  38.192  51.512
39842W        W31766  30.205  27.220  51.527
39843W        W31767  13.258  42.188  51.075
39844W        W31768  32.212  13.759  51.980
39845W        W31769   3.772  24.225  51.974
39846W        W31770  42.181  30.217  51.984
39847W        W31771  26.733  41.696  51.950
39848W        W31772  17.745  10.755  52.404
39849W        W31773  16.746   4.291  53.343
39850W        W31774  13.754  24.256  51.069
39851W        W31775  18.742  24.215  52.423
39852W        W31776   2.758  44.182  51.958
39853W        W31777  32.710   5.251  50.158
39854W        W31778  33.715  17.236  50.142
39855W        W31779  35.238  17.230  51.981
39856W        W31780   9.767  13.247  49.693
39857W        W31781  20.764  18.231  51.037
39858W        W31782  45.718  35.714  50.606
39859W        W31783  31.219   4.290  52.896
39860W        W31784  29.213   4.792  51.074
39861W        W31785  35.210  38.694  49.682
39862W        W31786  48.189  30.739  50.607
39863W        W31787  36.223  33.219  50.585
39864W        W31788  19.748  38.191  51.947
39865W        W31789  18.223   1.255  52.884
39866W        W31790  13.236  22.735  53.353
39867W        W31791   1.795  44.723  51.973
39868W        W31792  35.734  31.729  49.685
39869W        W31793  17.758  47.218  53.354
39870W        W31794  13.261  24.258  51.062
39871W        W31795  39.189   4.785  50.129
39872W        W31796  26.239  23.744  53.794
39873W        W31797  42.202  17.746  49.684
39874W        W31798  12.256  12.255  51.532
39875W        W31799  38.221  39.699  52.893
39876W        W31800  31.241  34.223  51.951
39877W        W31801  25.738  30.747  53.349
39878W        W31802  47.677  46.206  52.405
39879W        W31803  37.230  36.720  51.499
39880W        W31804   5.290  42.708  51.951
39881W        W31805  37.217  10.735  52.894
39882W        W31806  34.733  25.749  49.706
39883W        W31807   6.257  18.248  49.668
39884W        W31808   1.249  13.735  53.809
39885W        W31809  18.750  48.190  50.141
39886W        W31810  41.228  30.745  51.518
39887W        W31811  47.193  34.220  51.518
39888W        W31812  16.724   2.770  53.815
39889W        W31813  30.743  37.710  52.872
39890W        W31814  41.701  28.238  49.674
39891W        W31815   8.264  42.683  53.792
39892W        W31816  31.245  11.765  51.954
39893W        W31817  46.685   5.256  52.890
39894W        W31818   5.260  38.206  52.426
39895W        W31819  10.263  27.735  53.319
39896W        W31820  16.226  47.196  50.127
39897W        W31821  28.247  27.721  51.064
39898W        W31822  12.760   8.761  51.530
39899W        W31823  13.270   9.276  50.582
39900W        W31824  38.195  14.755  52.410
39901W        W31825  39.721  22.757  51.495
39902W        W31826  11.273   6.741  52.405
39903W        W31827   6.748  12.257  53.801
39904W        W31828  44.688  15.732  53.325
39905W        W31829  24.242  24.240  53.340
39906W        W31830   3.282   6.275  50.580
39907W        W31831   0.263  22.218  50.136
39908W        W31832  27.212  13.259  52.419
39909W        W31833  12.271  11.774  49.672
39910W        W31834  45.684  23.248  53.773
39911W        W31835  42.721  13.247  50.139
39912W        W31836  39.729  27.747  52.408
39913W        W31837  27.212   9.244  52.881
39914W        W31838  32.221   1.291  50.139
39915W        W31839  15.747  40.719  49.696
39916W        W31840   9.259  31.240  49.696
39917W        W31841  32.702  19.736  53.349
39918W        W31842   1.748  21.758  53.358
39919W        W31843  38.205  47.679  52.894
39920W        W31844  42.692  46.196  53.785
39921W        W31845  23.260  37.208  53.789
39922W        W31846   3.778  26.731  51.062
39923W        W31847  43.216   0.767  52.861
39924W        W31848  13.238   3.747  52.421
39925W        W31849  13.740  21.220  50.587
39926W        W31850  28.748   6.782  52.880
39927W        W31851  10.742  33.204  50.164
39928W        W31852  24.235   9.250  50.606
39929W        W31853   4.262  14.758  50.608
39930W        W31854   6.756  16.238  53.328
39931W        W31855  14.761   0.762  50.144
39932W        W31856  15.760  25.219  50.591
39933W        W31857  17.764  19.232  52.403
39934W        W31858  27.240  23.760  53.777
39935W        W31859  22.757  39.719  52.441
39936W        W31860  34.204  34.702  50.622
39937W        W31861  48.200  43.684  52.429
39938W        W31862  11.264  25.211  50.154
39939W        W31863  44.204  28.752  51.061
39940W        W31864  14.254  35.717  50.138
39941W        W31865   5.779  31.221  52.883
39942W        W31866  16.740   5.277  49.694
39943W        W31867  13.770  37.727  50.581
39944W        W31868  31.227   4.756  53.326
39945W        W31869  23.750  18.230  53.794
39946W        W31870  38.202  43.188  53.782
39947W        W31871  45.683  16.762  51.039
39948W        W31872  39.205  34.736  51.989
39949W        W31873  47.695   8.246  49.675
39950W        W31874  46.187  19.226  50.587
39951W        W31875  12.773  21.221  51.973
39952W        W31876  31.200   2.259  52.869
39953W        W31877  18.725   8.280  52.412
39954W        W31878  38.235  10.282  49.689
39955W        W31879  10.753  17.764  51.518
39956W        W31880  28.719  25.223  52.876
39957W        W31881  20.731   0.275  49.685
39958W        W31882  13.763  33.717  50.149
39959W        W31883  29.232  25.738  53.350
39960W        W31884  31.215  20.737  51.530
39961W        W31885  19.253  13.744  53.357
39962W        W31886  17.768  42.198  49.699
39963W        W31887  36.700  20.726  51.500
39964W        W31888  26.241  48.216  50.153
39965W        W31889  47.195  23.738  51.976
39966W        W31890  36.215  22.754  50.610
39967W        W31891  35.738  11.736  50.608
39968W        W31892  31.730  42.181  50.137
39969W        W31893  38.700  35.229  51.530
39970W        W31894  26.217   9.745  49.668
39971W        W31895  26.253  28.706  51.037
39972W        W31896  31.200   7.283  51.955
39973W        W31897  33.219   4.771  52.421
39974W        W31898  46.218  40.710  53.779
39975W        W31899  34.711  44.201  52.425
39976W        W31900  17.271  43.211  53.358
39977W        W31901  18.266   4.288  50.617
39978W        W31902   6.259  41.205  53.356
39979W        W31903  13.754  32.199  50.616
39980W        W31904  34.212  34.716  51.510
39981W        W31905   7.241  18.750  49.686
39982W        W31906   5.785  41.195  49.668
39983W        W31907  34.216  41.204  53.327
39984W        W31908  20.247  38.726  49.685
39985W        W31909   2.256  19.727  53.349
39986W        W31910  39.727   6.779  51.965
39987W        W31911  27.252  19.242  52.432
39988W        W31912   8.253  21.740  51.516
39989W        W31913  13.238  15.767  50.150
39990W        W31914  44.708  28.244  51.956
39991W        W31915   0.268  42.228  51.969
39992W        W31916   5.280  29.204  50.122
39993W        W31917   5.279  11.272  51.957
39994W        W31918   8.784  16.240  50.604
39995W        W31919  20.739  14.252  51.964
39996W        W31920  27.749  13.765  53.794
39997W        W31921  48.208  29.706  50.147
39998W        W31922  22.253  43.200  51.969
39999W        W31923   3.259  47.215  53.354
40000W        W31924  34.230  16.734  50.122
40001W        W31925  40.701  26.244  53.809
40002W        W31926  25.729  23.253  50.585
40003W        W31927  42.202   7.756  51.065
40004W        W31928  27.749  22.258  50.609
40005W        W31929  39.221  15.740  50.611
40006W        W31930   4.747   0.751  51.959
40007W        W31931  22.735  32.223  51.077
40008W        W31932  46.187  31.211  51.052
40009W        W31933   4.265  15.241  52.423
40010W        W31934  44.203  22.238  51.950
40011W        W31935  43.712  33.236  51.072
40012W        W31936  17.768  20.758  51.957
40013W        W31937  15.228  20.221  52.882
40014W        W31938  29.711  41.705  49.697
40015W        W31939  29.235  40.197  52.864
40016W        W31940  45.716  13.256  51.058
40017W        W31941   6.747  29.723  49.673
40018W        W31942  43.198  37.220  50.165
40019W        W31943  41.188  46.689  51.038
40020W        W31944   8.241  22.234  53.789
40021W        W31945  16.757  31.704  50.163
40022W        W31946  43.193  29.725  51.044
40023W        W31947  24.232  42.216  50.581
40024W        W31948  44.216  18.763  49.698
40025W        W31949  46.209  12.267  53.342
40026W        W31950   5.775  11.736  51.491
40027W        W31951  30.219   6.774  50.134
40028W        W31952  10.253  31.246  51.990
40029W        W31953  29.238  17.251  50.593
40030W        W31954  41.701   6.275  49.707
40031W        W31955  47.684  46.219  53.325
40032W        W31956   8.278  11.757  50.144
40033W        W31957  34.220  48.194  53.347
40034W        W31958  42.683  12.737  50.607
40035W        W31959  38.717  12.738  50.155
40036W        W31960  45.703  39.724  51.050
40037W        W31961  16.233  41.727  51.963
40038W        W31962   2.794  15.267  51.070
40039W        W31963  40.702  28.712  51.494
40040W        W31964   7.260   4.291  53.810
40041W        W31965   4.767   7.254  51.969
40042W        W31966   3.257  40.191  52.899
40043W        W31967  45.187  46.721  51.526
40044W        W31968  42.715   2.269  50.599
40045W        W31969   0.750  32.229  50.597
40046W        W31970   5.749   9.259  49.700
40047W        W31971  22.237   5.742  52.871
40048W        W31972  17.263  18.263  50.161
40049W        W31973   8.277  24.219  49.708
40050W        W31974  47.686  36.699  49.677
40051W        W31975  38.211  29.750  49.678
40052W        W31976  43.213  44.204  53.336
40053W        W31977  18.735  29.714  52.895
40054W        W31978  20.720  40.728  51.521
40055W        W31979  13.237  31.728  53.813
40056W        W31980  13.268  24.251  53.777
40057W        W31981  18.729  47.200  53.325
40058W        W31982  24.754  30.720  52.871
40059W        W31983   8.282  31.210  52.902
40060W        W31984  15.732  41.701  51.959
40061W        W31985   3.778   8.756  53.813
40062W        W31986  43.216  30.730  49.669
40063W        W31987  33.724  35.204  50.135
40064W        W31988  44.194  10.765  50.613
40065W        W31989  19.265  18.720  53.816
40066W        W31990  16.724   3.281  53.799
40067W        W31991  18.732  39.706  50.142
40068W        W31992  23.226  40.226  53.352
40069W        W31993  43.183   2.794  53.340
40070W        W31994  40.195  38.203  53.324
40071W        W31995   6.747  44.195  52.441
40072W        W31996  21.754  42.681  53.353
40073W        W31997  33.727  18.733  50.130
40074W        W31998  10.763   2.756  51.985
40075W        W31999  16.753  10.765  50.135
40076W        W32000  16.229   2.784  51.037
40077W        W32001  37.226   5.767  53.341
40078W        W32002   2.276  27.221  52.418
40079W        W32003   0.782  34.224  53.775
40080W        W32004  25.749  33.216  52.890
40081W        W32005  36.698  35.226  51.984
40082W        W32006  28.229  38.236  52.860
40083W        W32007  36.190   1.760  53.797
40084W        W32008   3.759   0.263  49.706
40085W        W32009  44.189   4.270  51.992
40086W        W32010  16.736  16.232  53.348
40087W        W32011   8.244   1.794  52.860
40088W        W32012  22.226  16.759  52.432
40089W        W32013  29.727  23.246  52.442
40090W        W32014  29.215   3.281  51.962
40091W        W32015  35.722  27.215  52.883
40092W        W32016   5.751  31.207  50.148
40093W        W32017  21.234  46.178  52.865
40094W        W32018   9.283   1.773  50.157
40095W        W32019   0.783  15.744  51.519
40096W        W32020  34.707   1.249  53.789
40097W        W32021  12.765   5.245  52.406
40098W        W32022  42.703   9.762  53.806
40099W        W32023  23.258   0.789  51.034
40100W        W32024  43.687  43.712  51.058
40101W        W32025  26.711  32.716  51.990
40102W        W32026   9.765  25.212  51.072
40103W        W32027  12.259  29.726  52.420
40104W        W32028   0.299  17.759  51.033
40105W        W32029  24.228  35.203  49.707
40106W        W32030   0.291   2.275  52.424
40107W        W32031  23.241  46.221  50.142
40108W        W32032  42.720  19.251  51.960
40109W        W32033  16.770  15.757  53.360
40110W        W32034  45.182  47.193  49.703
40111W        W32035  35.206  23.714  51.528
40112W        W32036  23.749  36.708  50.158
40113W        W32037  12.232   8.249  50.163
40114W        W32038  47.704  40.695  51.955
40115W        W32039  25.736  18.244  52.871
40116W        W32040  16.734  47.200  51.960
40117W        W32041  38.194  14.276  52.904
40118W        W32042  32.239  28.744  53.346
40119W        W32043  25.218  14.740  50.579
40120W        W32044  37.202  19.263  51.989
40121W        W32045   0.286  41.227  51.075
40122W        W32046   1.250  26.253  52.893
40123W        W32047  35.691   9.781  53.345
40124W        W32048  20.736  27.250  50.138
40125W        W32049   0.794  30.708  53.353
40126W        W32050  29.715  45.186  52.418
40127W        W32051  28.719  22.740  50.132
40128W        W32052  14.733  38.694  50.579
40129W        W32053   8.779  25.714  53.344
40130W        W32054  11.246  28.231  51.508
40131W        W32055  43.678  43.221  50.599
40132W        W32056  37.237  22.258  53.320
40133W        W32057  27.220   4.787  51.989
40134W        W32058  40.698  24.753  51.992
40135W        W32059  27.228  12.248  51.957
40136W        W32060  36.213  29.236  53.813
40137W        W32061   4.265  44.725  53.811
40138W        W32062   4.771  29.719  51.979
40139W        W32063  48.195  11.745  49.706
40140W        W32064  14.734  29.714  53.805
40141W        W32065  28.734  26.752  49.684
40142W        W32066  19.221  32.737  52.898
40143W        W32067  41.199  38.222  53.790
40144W        W32068  47.689  25.246  50.582
40145W        W32069  41.227  22.248  50.603
40146W        W32070  11.273  24.757  49.676
40147W        W32071  41.681   5.253  53.817
40148W        W32072  43.692  16.247  51.954
40149W        W32073  28.750  28.709  50.587
40150W        W32074  32.698  34.702  53.806
40151W        W32075  27.222   3.262  51.512
40152W        W32076  32.237  48.188  49.698
40153W        W32077   1.792  42.703  51.986
40154W        W32078  28.703  16.770  51.508
40155W        W32079  12.738   0.262  50.123
40156W        W32080  15.227   6.759  52.892
40157W        W32081  45.214  35.221  51.053
40158W        W32082  19.724   7.287  51.528
40159W        W32083  16.266  46.185  53.335
40160W        W32084  36.702   3.266  49.674
40161W        W32085  43.198  36.733  50.165
40162W        W32086  27.710  24.718  52.890
40163W        W32087   2.794  20.762  50.150
40164W        W32088  45.225  40.184  51.054
40165W        W32089  42.221  12.773  53.361
40166W        W32090  29.733  37.698  49.675
40167W        W32091  40.223  41.715  51.058
40168W        W32092  44.189  46.202  50.164
40169W        W32093  16.254  12.759  51.512
40170W        W32094  33.215  22.731  53.359
40171W        W32095  42.200   3.255  52.411
40172W        W32096   4.282  31.211  52.436
40173W        W32097  27.248   2.279  53.348
40174W        W32098   8.774  33.201  52.431
40175W        W32099  13.240  34.732  52.889
40176W        W32100  39.186   0.279  51.509
40177W        W32101   4.755  39.691  52.410
40178W        W32102  43.195  29.724  51.507
40179W        W32103  20.227   0.286  49.702
40180W        W32104  34.738  34.228  53.808
40181W        W32105   3.274  25.226  51.491
40182W        W32106  39.728  13.750  50.144
40183W        W32107   8.763   1.795  51.045
40184W        W32108  23.714  48.199  52.425
40185W        W32109  19.239  46.673  50.583
40186W        W32110   3.287  22.261  50.165
40187W        W32111  12.758  10.253  49.697
40188W        W32112   0.778  27.740  49.709
40189W        W32113  27.705  20.258  51.970
40190W        W32114  18.240  38.215  51.046
40191W        W32115  10.761   9.780  52.860
40192W        W32116   3.289  31.718  51.062
40193W        W32117  15.748  25.717  53.331
40194W        W32118  21.258   6.240  53.336
40195W        W32119  17.237   1.281  53.353
40196W        W32120  30.226  12.772  50.135
40197W        W32121  12.777  30.212  51.072
40198W        W32122  29.740  41.190  50.621
40199W        W32123   7.246  20.750  52.878
40200W        W32124  16.233  27.208  52.861
40201W        W32125  38.212  29.703  53.805
40202W        W32126  28.743  29.232  49.677
40203W        W32127  11.731  40.720  52.891
40204W        W32128  46.190  33.704  51.073
40205W        W32129  44.191  39.732  53.351
40206W        W32130  13.233  39.697  51.036
40207W        W32131  11.737  40.694  51.519
40208W        W32132  33.696  45.202  52.873
40209W        W32133  34.210  33.225  51.515
40210W        W32134  17.239  41.212  51.990
40211W        W32135  29.710  41.231  53.328
40212W        W32136  21.260  22.745  51.505
40213W        W32137  43.182  21.716  50.583
40214W        W32138  26.733  43.199  53.338
40215W        W32139   5.746   3.744  52.871
40216W        W32140  33.718  10.770  51.967
40217W        W32141  12.241  39.693  51.076
40218W        W32142   8.741  20.717  50.152
40219W        W32143  18.250  20.241  50.602
40220W        W32144  15.725  34.724  53.805
40221W        W32145   9.764  45.213  50.601
40222W        W32146  25.719  25.226  50.124
40223W        W32147  46.216  13.756  50.129
40224W        W32148  19.234  32.739  50.143
40225W        W32149   4.264  32.225  51.058
40226W        W32150  17.237  47.215  51.987
40227W        W32151  20.232  44.716  52.433
40228W        W32152  30.746  44.694  53.339
40229W        W32153  43.207  27.716  50.152
40230W        W32154  31.702  33.711  51.501
40231W        W32155   6.240  29.703  50.600
40232W        W32156  23.247   2.768  51.490
40233W        W32157  45.707   2.274  52.424
40234W        W32158  25.752  12.766  51.075
40235W        W32159  44.208   5.289  51.499
40236W        W32160  47.205  25.253  51.070
40237W        W32161   5.780   3.775  52.440
40238W        W32162  34.229  22.742  52.904
40239W        W32163  30.232  39.220  50.130
40240W        W32164  48.220  16.743  51.057
40241W        W32165  24.223   5.759  51.520
40242W        W32166  43.210  21.725  51.492
40243W        W32167  45.225   0.293  52.903
40244W        W32168  48.185  33.722  53.786
40245W        W32169  32.217  28.245  51.048
40246W        W32170   0.783   3.745  53.330
40247W        W32171  46.207   8.280  49.675
40248W        W32172   1.297  17.761  53.817
40249W        W32173  26.242  37.229  50.130
40250W        W32174  44.697  33.209  52.442
40251W        W32175  16.748  30.748  53.778
40252W        W32176   6.781  26.755  49.694
40253W        W32177  36.727  29.749  50.579
40254W        W32178  13.743  46.713  52.434
40255W        W32179  35.695  43.696  51.498
40256W        W32180  28.712  19.253  50.125
40257W        W32181  42.181   2.260  51.490
40258W        W32182   8.765   6.781  50.123
40259W        W32183  45.182  33.214  50.146
40260W        W32184   1.778  28.227  51.058
40261W        W32185  44.679  37.695  53.780
40262W        W32186  12.774   6.265  51.980
40263W        W32187   4.790  21.761  52.425
40264W        W32188  16.728  44.194  51.052
40265W        W32189  40.189   3.257  51.490
40266W        W32190   6.262   0.285  52.878
40267W        W32191  19.746  30.702  52.891
40268W        W32192   8.281   7.767  49.670
40269W        W32193  35.727  37.228  52.869
40270W        W32194   6.254  40.229  52.414
40271W        W32195  13.255   1.282  51.503
40272W        W32196  26.239  45.680  51.052
40273W        W32197  20.260  21.762  51.950
40274W        W32198  44.695  10.733  52.411
40275W        W32199   5.783  38.694  51.066
40276W        W32200   1.271  20.240  51.951
40277W        W32201  26.231  15.756  51.491
40278W        W32202  30.224   6.744  51.498
40279W        W32203  22.747  10.244  49.678
40280W        W32204  26.708  12.247  49.695
40281W        W32205  45.697  42.683  50.599
40282W        W32206  28.244  25.745  50.151
40283W        W32207  25.715  29.241  51.958
40284W        W32208  26.727  36.226  51.048
40285W        W32209  17.269   8.286  51.066
40286W        W32210  41.184  34.243  50.125
40287W        W32211  37.698   0.799  53.336
40288W        W32212  46.708  11.232  49.690
40289W        W32213  24.254  23.759  50.585
40290W        W32214   2.275  36.221  51.974
40291W        W32215  18.757  16.744  51.981
40292W        W32216   7.740  19.760  52.403
40293W        W32217  42.707  31.709  49.671
40294W        W32218  38.220   5.289  53.805
40295W        W32219  27.729  47.702  49.690
40296W        W32220  13.743  28.234  50.595
40297W        W32221  39.711  29.725  53.356
40298W        W32222  30.244   0.787  51.522
40299W        W32223  29.218  44.694  49.669
40300W        W32224   6.279  29.210  52.433
40301W        W32225  21.246  23.755  49.689
40302W        W32226   3.786  40.727  50.131
40303W        W32227  43.704  45.205  53.361
40304W        W32228  41.223  19.764  52.436
40305W        W32229  38.230  37.231  53.344
40306W        W32230  16.247   9.753  52.887
40307W        W32231   4.288  46.212  50.124
40308W        W32232  17.751   7.759  52.405
40309W        W32233  45.176  48.173  50.616
40310W        W32234  21.218  36.731  49.702
40311W        W32235  34.215  10.771  52.876
40312W        W32236  21.745  12.731  51.961
40313W        W32237  32.241  43.219  49.676
40314W        W32238  35.731  33.742  52.893
40315W        W32239  22.238  29.236  49.701
40316W        W32240   5.267   1.263  51.966
40317W        W32241  23.233  30.722  52.861
40318W        W32242  25.224  36.701  51.493
40319W        W32243  19.731  29.218  53.800
40320W        W32244  17.241   3.287  52.864
40321W        W32245  40.195  23.259  51.510
40322W        W32246  14.769  20.235  52.892
40323W        W32247  32.741   4.247  50.135
40324W        W32248   6.771  37.191  50.162
40325W        W32249  19.240  41.719  51.057
40326W        W32250  47.183   7.779  52.413
40327W        W32251  41.715  17.753  51.983
40328W        W32252  21.734  39.199  51.043
40329W        W32253  16.768  42.682  53.344
40330W        W32254  42.719  34.701  49.705
40331W        W32255  20.263  32.232  49.664
40332W        W32256  22.729  37.214  51.045
40333W        W32257  40.192   1.267  51.492
40334W        W32258  22.741  25.721  50.589
40335W        W32259   8.241  23.755  50.590
40336W        W32260  17.766  13.743  51.064
40337W        W32261  34.227  22.739  51.066
40338W        W32262  19.754  48.188  50.584
40339W        W32263  24.729  35.220  53.805
40340W        W32264  29.710  15.242  49.678
40341W        W32265  44.725  44.719  51.076
40342W        W32266  24.222  36.196  49.707
40343W        W32267  14.237  21.231  53.321
40344W        W32268   4.270  32.245  49.681
40345W        W32269   8.262  20.748  50.147
40346W        W32270  23.742  45.205  49.684
40347W        W32271   6.767  10.281  51.070
40348W        W32272  38.190  24.257  50.608
40349W        W32273  41.183  12.250  52.411
40350W        W32274  15.254   8.775  51.074
40351W        W32275  45.213  24.725  52.428
40352W        W32276   0.791  11.278  52.445
40353W        W32277   2.253   3.746  51.499
40354W        W32278  25.715  23.258  51.972
40355W        W32279  47.189  28.210  53.799
40356W        W32280  38.219  24.739  52.865
40357W        W32281  46.216  36.726  49.700
40358W        W32282  10.749  17.256  49.679
40359W        W32283   6.760   1.293  53.342
40360W        W32284  38.699  46.721  49.692
40361W        W32285   0.776  31.734  50.147
40362W        W32286  12.248  46.701  52.903
40363W        W32287   2.280   7.269  49.703
40364W        W32288  15.764  39.230  51.493
40365W        W32289  12.269   9.282  51.059
40366W        W32290  44.708  37.222  53.332
40367W        W32291  37.216   1.749  53.338
40368W        W32292  31.240  17.725  51.503
40369W        W32293  11.771   9.240  52.405
40370W        W32294  10.273   8.269  51.954
40371W        W32295  23.219  30.233  53.810
40372W        W32296  47.214  31.743  51.509
40373W        W32297   5.246   9.757  50.164
40374W        W32298  35.220  21.718  49.676
40375W        W32299  38.227  38.233  51.511
40376W        W32300   7.782  19.739  50.580
40377W        W32301  15.735  29.710  51.980
40378W        W32302  35.209  30.715  49.688
40379W        W32303  28.707   8.750  53.340
40380W        W32304  12.774  12.744  50.598
40381W        W32305   9.770   8.252  52.422
40382W        W32306  38.713  47.698  51.529
40383W        W32307  24.222  18.758  53.805
40384W        W32308  48.184  19.256  53.337
40385W        W32309  23.255  28.740  52.405
40386W        W32310  19.727  20.219  50.163
40387W        W32311  31.200   1.271  51.981
40388W        W32312  15.226  43.688  51.053
40389W        W32313  37.205  38.208  51.979
40390W        W32314   1.253  25.209  49.704
40391W        W32315  39.202  35.741  51.959
40392W        W32316  30.206  13.742  51.491
40393W        W32317  39.227  34.220  51.950
40394W        W32318  34.215   3.284  50.165
40395W        W32319  36.238  15.728  50.622
40396W        W32320   7.746  25.712  53.800
40397W        W32321  36.197  19.739  53.318
40398W        W32322  11.266   1.254  51.951
40399W        W32323  35.220  42.226  53.810
40400W        W32324  32.729  14.773  52.896
40401W        W32325   0.269   8.279  52.864
40402W        W32326   5.260  27.210  51.974
40403W        W32327  43.215  15.771  50.141
40404W        W32328  20.252   7.285  53.791
40405W        W32329   5.242   0.794  50.160
40406W        W32330   3.260  37.718  52.433
40407W        W32331  27.720  34.217  51.532
40408W        W32332  46.674  27.243  49.683
40409W        W32333  44.206   0.260  50.157
40410W        W32334  27.712  36.739  52.411
40411W        W32335  46.197   6.254  51.503
40412W        W32336  33.715  24.253  50.149
40413W        W32337   6.772   8.754  52.881
40414W        W32338  18.256  12.234  50.606
40415W        W32339  38.229  13.277  51.950
40416W        W32340  11.774  46.684  50.599
40417W        W32341  18.222   1.792  53.795
40418W        W32342   5.258   3.762  51.046
40419W        W32343  21.236  26.232  52.900
40420W        W32344   8.258  39.720  50.149
40421W        W32345   9.738  20.725  50.159
40422W        W32346  18.766  45.691  50.613
40423W        W32347  26.223  46.716  53.817
40424W        W32348  28.749  26.748  52.882
40425W        W32349  31.698   5.259  51.533
40426W        W32350  17.759  10.276  51.952
40427W        W32351  48.219  44.686  52.448
40428W        W32352  14.258  20.761  52.865
40429W        W32353  36.225  14.774  51.512
40430W        W32354  13.270  35.221  53.812
40431W        W32355  31.710  24.738  50.163
40432W        W32356  33.239   5.251  53.348
40433W        W32357  16.259  14.774  51.978
40434W        W32358   8.242  32.729  51.978
40435W        W32359   1.272  18.768  53.329
40436W        W32360  20.246  26.252  51.034
40437W        W32361  42.692  34.741  51.952
40438W        W32362  23.728  28.716  51.040
40439W        W32363  42.693   4.774  51.045
40440W        W32364   3.265  25.749  49.666
40441W        W32365  40.207  33.721  51.055
40442W        W32366   6.251  29.248  52.901
40443W        W32367  36.732  24.235  51.960
40444W        W32368  40.686  19.259  50.155
40445W        W32369   4.760  13.271  53.790
40446W        W32370  31.746   3.254  50.617
40447W        W32371  46.176  47.213  53.803
40448W        W32372  13.252   3.260  51.990
40449W        W32373  30.250  33.219  52.887
40450W        W32374  33.216  14.272  53.802
40451W        W32375  25.746   4.770  51.535
40452W        W32376  11.754  23.220  50.586
40453W        W32377  45.210   4.246  50.143
40454W        W32378   9.779   9.748  53.344
40455W        W32379  39.206   7.759  53.331
40456W        W32380  29.214  33.213  53.800
40457W        W32381  11.245  27.718  52.432
40458W        W32382  46.213  18.238  53.354
40459W        W32383  32.226  42.700  51.495
40460W        W32384   1.289   0.763  50.591
40461W        W32385  25.750  42.704  51.499
40462W        W32386  14.754  30.226  52.872
40463W        W32387  23.756  15.771  50.139
40464W        W32388  11.238  22.261  50.619
40465W        W32389  38.231   1.756  53.355
40466W        W32390  32.219  44.695  50.582
40467W        W32391  24.210  11.270  52.902
40468W        W32392   7.287   6.275  50.122
40469W        W32393  12.758   6.281  50.607
40470W        W32394  25.746   2.777  53.776
40471W        W32395  24.240  31.205  50.599
40472W        W32396  45.191   9.743  50.151
40473W        W32397  33.218   9.751  52.870
40474W        W32398  32.745  12.767  49.684
40475W        W32399  34.698  11.238  52.443
40476W        W32400  35.235   6.772  53.353
40477W        W32401  38.734  15.767  52.442
40478W        W32402   4.260  43.188  49.695
40479W        W32403  20.261  36.215  51.506
40480W        W32404   5.742  26.241  52.421
40481W        W32405  25.729  13.751  53.809
40482W        W32406  20.221  45.705  49.703
40483W        W32407   7.761  30.714  51.490
40484W        W32408  19.732  17.223  52.866
40485W        W32409   2.795  40.194  50.152
40486W        W32410  20.733  41.187  52.873
40487W        W32411  25.219  22.741  53.359
40488W        W32412  27.705   8.780  49.697
40489W        W32413  12.744  30.729  52.427
40490W        W32414   4.773  31.221  50.162
40491W        W32415  37.225  10.274  53.772
40492W        W32416  45.203  33.718  51.069
40493W        W32417  20.750   8.758  52.873
40494W        W32418  27.236  16.231  51.070
40495W        W32419  42.717  13.755  53.342
40496W        W32420  14.744  10.776  50.127
40497W        W32421  43.716  30.220  53.804
40498W        W32422  42.213  10.262  53.801
40499W        W32423  19.254  35.202  50.157
40500W        W32424  31.711  19.240  52.871
40501W        W32425  39.234   0.260  51.061
40502W        W32426   0.792  10.238  50.578
40503W        W32427   8.749  30.238  49.666
40504W        W32428   6.749  37.702  51.970
40505W        W32429  11.242  24.257  49.685
40506W        W32430  45.700  34.718  49.685
40507W        W32431   6.746   2.257  52.870
40508W        W32432  10.744  33.720  51.492
40509W        W32433  34.239  32.726  51.044
40510W        W32434  40.186   9.754  52.443
40511W        W32435  35.239  47.209  52.887
40512W        W32436  47.212  32.712  52.421
40513W        W32437   8.255  43.220  51.502
40514W        W32438  38.228  38.722  51.966
40515W        W32439  10.273  36.194  53.343
40516W        W32440  18.739  22.216  53.773
40517W        W32441  10.760   2.290  51.972
40518W        W32442   0.297  18.735  53.801
40519W        W32443   8.272  33.704  50.150
40520W        W32444  42.710   4.272  50.166
40521W        W32445   2.765  27.234  52.885
40522W        W32446  39.724  28.732  53.793
40523W        W32447  14.240  28.252  51.958
40524W        W32448  38.221  16.228  49.666
40525W        W32449   4.246   3.776  51.506
40526W        W32450   3.279  31.734  53.351
40527W        W32451  13.737  23.741  49.703
40528W        W32452  23.746   4.259  52.890
40529W        W32453  41.702  22.263  52.867
40530W        W32454  38.189  13.738  51.056
40531W        W32455  33.220   3.278  52.439
40532W        W32456  38.699   0.764  51.060
40533W        W32457  44.684  25.719  49.683
40534W        W32458  28.227   7.275  51.494
40535W        W32459  45.681  41.728  51.067
40536W        W32460  35.223  19.746  52.413
40537W        W32461  46.209  37.717  53.328
40538W        W32462  38.717   8.771  53.781
40539W        W32463  38.700   5.256  53.321
40540W        W32464  40.226  23.215  50.156
40541W        W32465  24.737  29.217  50.147
40542W        W32466  11.251  43.708  53.792
40543W        W32467   8.783  31.203  53.354
40544W        W32468  45.180  31.704  49.668
40545W        W32469  23.213  19.734  51.067
40546W        W32470  38.195  38.211  53.783
40547W        W32471  19.227  39.698  51.951
40548W        W32472  27.251  10.262  51.956
40549W        W32473  21.250   3.292  50.587
40550W        W32474  33.198   2.759  51.520
40551W        W32475  19.766  14.256  51.524
40552W        W32476  36.199  34.198  51.976
40553W        W32477  12.250  20.263  50.130
40554W        W32478  17.248   0.788  50.165
40555W        W32479  41.690  17.243  51.512
40556W        W32480  26.728  34.198  51.524
40557W        W32481  40.195  29.744  51.069
40558W        W32482  48.191  34.199  50.135
40559W        W32483  40.195  28.239  51.072
40560W        W32484   1.786  27.713  50.613
40561W        W32485   7.769  11.770  51.043
40562W        W32486   3.289   0.272  51.500
40563W        W32487   4.755  40.207  51.042
40564W        W32488  37.200  42.694  51.068
40565W        W32489  34.240   3.273  50.604
40566W        W32490   4.252  39.192  52.880
40567W        W32491  34.234  38.234  52.422
40568W        W32492   2.794  35.723  53.799
40569W        W32493  33.727  10.246  52.873
40570W        W32494  46.707  15.746  50.612
40571W        W32495  28.226  48.190  53.773
40572W        W32496   5.760  39.690  50.581
40573W        W32497  34.197  36.239  52.410
40574W        W32498  44.213  38.717  51.063
40575W        W32499  10.748  39.222  53.789
40576W        W32500  28.213  11.732  50.122
40577W        W32501  31.714  38.187  53.785
40578W        W32502  40.232  22.761  52.862
40579W        W32503   1.781   1.289  51.525
40580W        W32504  47.695  34.194  51.524
40581W        W32505  32.736   2.252  53.812
40582W        W32506  26.252   8.773  49.676
40583W        W32507   4.789  47.699  49.667
40584W        W32508   2.749   5.775  49.689
40585W        W32509  21.243  17.250  51.956
40586W        W32510  45.184  21.235  52.865
40587W        W32511  17.746  33.732  52.404
40588W        W32512   8.261   1.749  53.814
40589W        W32513  39.716  32.208  51.950
40590W        W32514   8.751  22.714  51.965
40591W        W32515  31.235  44.214  50.154
40592W        W32516   7.738  30.706  52.442
40593W        W32517   6.770  33.701  53.784
40594W        W32518  19.722  32.225  49.669
40595W        W32519   6.753  18.260  50.143
40596W        W32520  15.248  28.719  53.799
40597W        W32521  22.752  15.228  51.988
40598W        W32522  15.232  42.209  50.135
40599W        W32523  34.236   9.249  51.958
40600W        W32524  31.708   2.271  51.059
40601W        W32525  17.734  36.228  52.413
40602W        W32526  12.232   1.772  53.807
40603W        W32527  30.741   1.282  50.588
40604W        W32528  39.211  10.753  51.034
40605W        W32529  47.677  19.229  53.777
40606W        W32530   3.774  44.716  53.347
40607W        W32531  36.203  10.249  52.883
40608W        W32532  22.719  17.263  50.145
40609W        W32533  20.754  15.761  52.431
40610W        W32534  28.708  14.235  51.954
40611W        W32535  45.694  45.182  52.411
40612W        W32536  38.193  29.742  53.348
40613W        W32537  14.773   8.782  50.136
40614W        W32538   5.744  38.687  52.430
40615W        W32539  34.210  19.237  51.040
40616W        W32540  42.688  48.174  51.529
40617W        W32541  15.749  16.727  52.433
40618W        W32542   2.290  32.737  52.902
40619W        W32543  16.750   8.741  53.805
40620W        W32544  31.709   1.766  49.677
40621W        W32545  30.742  22.253  51.991
40622W        W32546  15.238   9.252  49.706
40623W        W32547   3.789   1.754  51.961
40624W        W32548  21.759  39.685  50.151
40625W        W32549  40.205  47.671  50.157
40626W        W32550  48.210  18.744  50.609
40627W        W32551  21.722  28.220  52.888
40628W        W32552  35.201  13.768  53.355
40629W        W32553  23.228  25.244  49.706
40630W        W32554  15.243  36.738  51.044
40631W        W32555  47.688  10.263  51.963
40632W        W32556  47.673  34.197  50.136
40633W        W32557  39.193  33.697  52.860
40634W        W32558  43.681   3.766  53.332
40635W        W32559   2.748  17.224  51.515
40636W        W32560   2.758  26.717  52.876
40637W        W32561   4.276  28.720  51.498
40638W        W32562  21.739  20.242  53.321
40639W        W32563  23.734   5.757  49.698
40640W        W32564  46.715  40.195  50.135
40641W        W32565   0.262  11.753  50.149
40642W        W32566  41.183  20.226  52.429
40643W        W32567  40.729   2.282  51.514
40644W        W32568  18.756   8.271  49.700
40645W        W32569  16.725  44.206  52.418
40646W        W32570  32.201  43.715  50.590
40647W        W32571  37.689  10.275  49.699
40648W        W32572  12.770  46.219  52.436
40649W        W32573  48.201   7.738  50.126
40650W        W32574  36.697  34.235  51.057
40651W        W32575  27.226  35.709  50.137
40652W        W32576  20.742  18.737  50.164
40653W        W32577  40.721  20.759  51.517
40654W        W32578  37.714  47.206  51.504
40655W        W32579  46.699  44.699  53.801
40656W        W32580  31.714  35.695  49.690
40657W        W32581   2.281   4.768  53.782
40658W        W32582  45.213  23.735  53.348
40659W        W32583  26.748  43.180  52.440
40660W        W32584   5.288  36.692  53.341
40661W        W32585  27.752  31.204  49.676
40662W        W32586  27.722  45.706  52.422
40663W        W32587  18.740  33.202  51.972
40664W        W32588  42.699   9.249  50.147
40665W        W32589  25.248  28.248  51.046
40666W        W32590   2.761  28.253  52.421
40667W        W32591  18.767  23.713  49.690
40668W        W32592  47.197  46.205  51.501
40669W        W32593   2.762   1.771  51.965
40670W        W32594  42.187   9.770  51.520
40671W        W32595  18.725  27.209  51.988
40672W        W32596  38.232  23.258  50.125
40673W        W32597  40.227  21.232  49.693
40674W        W32598  14.236  13.256  50.610
40675W        W32599  30.218  20.763  52.418
40676W        W32600  31.226   1.259  53.792
40677W        W32601   5.281  24.229  51.044
40678W        W32602  28.709  30.726  51.075
40679W        W32603   3.258  29.240  51.075
40680W        W32604   8.766  46.687  51.965
40681W        W32605  35.238  36.722  50.154
40682W        W32606  15.750  21.758  49.670
40683W        W32607  35.731  12.750  53.788
40684W        W32608  24.715  20.238  49.676
40685W        W32609  36.706  13.729  52.413
40686W        W32610  39.707  29.702  51.504
40687W        W32611  38.203  27.249  53.779
40688W        W32612  43.682  22.214  51.078
40689W        W32613  35.203   9.261  50.594
40690W        W32614   4.247  19.746  52.440
40691W        W32615  14.740  19.730  51.060
40692W        W32616  42.193  28.704  52.439
40693W        W32617  29.729  21.718  50.138
40694W        W32618  25.227   0.766  52.901
40695W        W32619   7.747  40.718  49.678
40696W        W32620  29.710  43.683  51.533
40697W        W32621  45.220  11.763  51.491
40698W        W32622  36.239  48.195  53.812
40699W        W32623  13.263  22.241  51.053
40700W        W32624  24.245   6.264  49.685
40701W        W32625  44.719  20.740  51.516
40702W        W32626  20.752  23.728  51.979
40703W        W32627   3.789  19.225  53.356
40704W        W32628  23.759  40.718  49.706
40705W        W32629  36.736   4.760  49.699
40706W        W32630   1.776  25.755  51.526
40707W        W32631  34.232  39.732  52.886
40708W        W32632   4.255  35.211  51.524
40709W        W32633  31.234  22.215  53.328
40710W        W32634  42.680  42.695  50.147
40711W        W32635  28.721  46.194  51.508
40712W        W32636  37.714  37.733  51.051
40713W        W32637  19.259  34.236  51.509
40714W        W32638   8.764  12.759  51.494
40715W        W32639  37.211   4.286  49.667
40716W        W32640  43.683  20.764  51.035
40717W        W32641  23.249   9.739  50.609
40718W        W32642   3.757  11.739  51.066
40719W        W32643  38.705  44.707  51.078
40720W        W32644   3.788   9.737  52.443
40721W        W32645  39.228  33.704  53.817
40722W        W32646  39.692  11.233  50.598
40723W        W32647  47.715  15.266  51.076
40724W        W32648  17.269  38.197  52.433
40725W        W32649  18.758  25.723  53.782
40726W        W32650  22.242  20.745  50.122
40727W        W32651  32.733  27.719  51.533
40728W        W32652  30.730  14.755  51.507
40729W        W32653  38.705  29.716  53.775
40730W        W32654  18.749  48.203  51.056
40731W        W32655   6.742  19.225  50.612
40732W        W32656   8.283  14.749  51.491
40733W        W32657  13.254   7.771  51.507
40734W        W32658  43.695  40.684  53.816
40735W        W32659  17.228   8.768  50.604
40736W        W32660  44.187  30.736  50.606
40737W        W32661  16.771  15.251  52.877
40738W        W32662  43.693  37.221  50.147
40739W        W32663  21.747  31.222  52.870
40740W        W32664  33.703  20.223  53.325
40741W        W32665  20.744  25.223  52.420
40742W        W32666  36.711   7.768  52.900
40743W        W32667  26.750  40.717  51.532
40744W        W32668   9.263  48.191  51.066
40745W        W32669   6.742  38.211  50.158
40746W        W32670  39.702   6.262  50.157
40747W        W32671   6.743  18.266  51.504
40748W        W32672  35.238  26.724  51.041
40749W        W32673   2.765  39.724  53.342
40750W        W32674  41.228   9.241  49.693
40751W        W32675  40.727  30.218  50.149
40752W        W32676  44.686  44.221  52.427
40753W        W32677   4.266  26.224  52.889
40754W        W32678  18.245  46.217  53.804
40755W        W32679  40.184  34.220  50.154
40756W        W32680  23.226  23.233  50.600
40757W        W32681  16.268  23.725  51.072
40758W        W32682   2.781  45.712  51.959
40759W        W32683  36.731  34.699  53.790
40760W        W32684   5.250  47.189  53.807
40761W        W32685  32.202   4.279  53.342
40762W        W32686   1.787  22.249  51.491
40763W        W32687  15.724  34.212  51.055
40764W        W32688  23.747  35.736  50.578
40765W        W32689  24.259   6.755  51.526
40766W        W32690  38.694  35.240  53.316
40767W        W32691  11.246   3.277  51.961
40768W        W32692  33.735   4.766  51.991
40769W        W32693  12.756   7.748  53.336
40770W        W32694  15.728  43.692  50.164
40771W        W32695  19.231  14.260  52.870
40772W        W32696  23.233  19.729  50.595
40773W        W32697  21.727  42.213  52.432
40774W        W32698   4.784  23.222  51.523
40775W        W32699  14.775  20.245  51.963
40776W        W32700   0.276  23.254  52.890
40777W        W32701  15.263   5.267  53.328
40778W        W32702  22.257  45.685  52.436
40779W        W32703  22.752  29.706  51.062
40780W        W32704  31.704  19.226  51.960
40781W        W32705  32.204  16.228  52.421
40782W        W32706  28.732   1.780  51.954
40783W        W32707  31.235  22.747  50.580
40784W        W32708   8.286  37.712  50.618
40785W        W32709  14.737  10.239  52.878
40786W        W32710  29.725  46.722  52.904
40787W        W32711  47.195   4.254  50.135
40788W        W32712  35.706  35.208  51.071
40789W        W32713  45.176  24.756  50.159
40790W        W32714   1.293  33.206  53.805
40791W        W32715  32.206  41.708  53.352
40792W        W32716  27.719  24.252  53.338
40793W        W32717  24.229  29.211  51.079
40794W        W32718  35.219  30.231  53.343
40795W        W32719  39.730  33.196  52.434
40796W        W32720  18.719  34.222  52.443
40797W        W32721   7.774  22.724  50.152
40798W        W32722  41.215  32.731  51.060
40799W        W32723  35.720  41.201  50.162
40800W        W32724  46.179  46.722  50.164
40801W        W32725   3.761  14.270  53.340
40802W        W32726  17.248  33.196  51.964
40803W        W32727  46.706  36.230  53.360
40804W        W32728  30.718   4.784  49.706
40805W        W32729   8.758  16.732  50.139
40806W        W32730  37.722  30.748  53.777
40807W        W32731  25.754   0.261  52.413
40808W        W32732  32.721  41.691  50.151
40809W        W32733  40.226   4.269  51.946
40810W        W32734  26.713  16.757  52.446
40811W        W32735  29.749   3.253  51.057
40812W        W32736  19.762  35.239  52.903
40813W        W32737  17.734  15.769  50.608
40814W        W32738  41.195  21.762  53.799
40815W        W32739   8.776  12.266  53.341
40816W        W32740  13.774   4.276  53.319
40817W        W32741   8.771  33.198  53.814
40818W        W32742  16.241  38.234  51.071
40819W        W32743  34.740  28.748  50.609
40820W        W32744  20.723  14.239  51.062
40821W        W32745  23.234  41.687  51.044
40822W        W32746  37.190  19.224  53.331
40823W        W32747   8.272  17.267  51.523
40824W        W32748  21.756  15.726  51.065
40825W        W32749  14.248  18.757  53.361
40826W        W32750   5.770  20.758  49.698
40827W        W32751  16.751  46.721  50.577
40828W        W32752  22.215  16.733  51.965
40829W        W32753  21.264  40.716  53.793
40830W        W32754  20.753  24.740  52.418
40831W        W32755  30.213  14.272  53.347
40832W        W32756  10.260  23.230  52.869
40833W        W32757  15.268   7.288  51.504
40834W        W32758  27.242   9.756  50.147
40835W        W32759  33.209  35.209  53.336
40836W        W32760  23.231  33.206  53.784
40837W        W32761   3.283  13.270  52.882
40838W        W32762  26.231  26.208  50.607
40839W        W32763  18.229   3.273  53.775
40840W        W32764  34.722  41.207  51.979
40841W        W32765  20.226  43.718  50.150
40842W        W32766  24.721  43.225  51.054
40843W        W32767  23.753  33.227  51.958
40844W        W32768   1.774  47.675  53.323
40845W        W32769  28.723   6.277  50.164
40846W        W32770  10.269  25.753  50.146
40847W        W32771  36.716  12.250  51.509
40848W        W32772  10.270   9.760  51.517
40849W        W32773  22.749  36.229  52.901
40850W        W32774  11.737  19.762  50.616
40851W        W32775  28.737  29.249  50.127
40852W        W32776  30.717  14.250  52.902
40853W        W32777   3.253  33.696  51.520
40854W        W32778  28.221  16.231  50.587
40855W        W32779  34.735  38.206  51.526
40856W        W32780  43.721  23.744  52.865
40857W        W32781  15.750  43.215  51.510
40858W        W32782   3.254  41.210  52.406
40859W        W32783  11.745  32.697  51.057
40860W        W32784  37.234  24.257  49.675
40861W        W32785  45.724  19.240  51.526
40862W        W32786  22.218   7.249  53.349
40863W        W32787   4.764  10.237  51.065
40864W        W32788  23.240  38.733  51.055
40865W        W32789  45.682  31.207  51.958
40866W        W32790  44.180  44.686  52.862
40867W        W32791  22.263   3.789  50.126
40868W        W32792   8.777  13.774  51.954
40869W        W32793  47.199  10.781  51.071
40870W        W32794  15.234  27.733  49.671
40871W        W32795  14.771  37.215  49.665
40872W        W32796  15.265  35.235  52.893
40873W        W32797  12.241  20.253  52.897
40874W        W32798  39.721  38.707  51.977
40875W        W32799  27.753  38.198  53.809
40876W        W32800  17.270  37.730  53.787
40877W        W32801  17.741  47.192  51.514
40878W        W32802   0.758  45.683  52.420
40879W        W32803  12.770   7.280  52.904
40880W        W32804  23.746  13.737  51.523
40881W        W32805  20.765   1.278  51.959
40882W        W32806  37.214   8.283  51.970
40883W        W32807   7.780   2.274  50.156
40884W        W32808  22.716  37.701  51.072
40885W        W32809  39.728  40.689  53.815
40886W        W32810   5.261   0.264  50.583
40887W        W32811   6.788  42.228  50.596
40888W        W32812  44.207   8.286  52.881
40889W        W32813   2.249  41.727  51.041
40890W        W32814  36.719  32.199  53.330
40891W        W32815  19.257  35.240  52.875
40892W        W32816  33.702  24.726  52.891
40893W        W32817  29.735  27.245  51.042
40894W        W32818  30.206   8.239  53.351
40895W        W32819  17.763  32.715  51.050
40896W        W32820  22.762  24.736  51.534
40897W        W32821  28.210   0.252  51.951
40898W        W32822  12.242  25.236  52.413
40899W        W32823  19.240   3.248  51.063
40900W        W32824  11.265  30.218  52.860
40901W        W32825  36.235  41.714  51.959
40902W        W32826   7.263   4.788  50.599
40903W        W32827  10.746  42.687  50.130
40904W        W32828  26.724  10.752  52.893
40905W        W32829   4.758  25.242  52.433
40906W        W32830  21.753   2.749  51.060
40907W        W32831  20.740  29.251  49.676
40908W        W32832   6.768  16.230  51.047
40909W        W32833  37.191   0.259  52.897
40910W        W32834  46.199  42.183  53.781
40911W        W32835  32.699  33.197  51.527
40912W        W32836   0.281   0.279  53.343
40913W        W32837  38.198   7.278  50.136
40914W        W32838  40.722  10.775  53.347
40915W        W32839  48.214  14.276  53.344
40916W        W32840  37.229   3.291  50.162
40917W        W32841   0.297  19.724  51.968
40918W        W32842   2.784  42.703  51.961
40919W        W32843  38.199  25.255  50.580
40920W        W32844   5.755   3.260  50.125
40921W        W32845  47.690  19.736  51.066
40922W        W32846  36.704  47.200  50.135
40923W        W32847  48.198   5.785  52.441
40924W        W32848  37.701  35.218  51.965
40925W        W32849   8.240  13.732  53.330
40926W        W32850  36.219  11.769  50.139
40927W        W32851  29.742  32.714  52.442
40928W        W32852  25.735   0.280  53.317
40929W        W32853  31.243  13.736  53.795
40930W        W32854  22.756  28.739  53.341
40931W        W32855  15.267  14.245  52.443
40932W        W32856  34.741   4.749  50.162
40933W        W32857   4.271   7.243  51.078
40934W        W32858  47.220  19.738  51.497
40935W        W32859  23.257  35.200  51.525
40936W        W32860  44.202  26.755  51.041
40937W        W32861  20.735  12.251  52.896
40938W        W32862  17.727  12.267  52.903
40939W        W32863  36.726  17.246  51.981
40940W        W32864  36.219  22.240  50.138
40941W        W32865  34.202   2.290  51.072
40942W        W32866  15.270  12.247  52.414
40943W        W32867  20.734   7.782  50.150
40944W        W32868   0.752  22.241  50.122
40945W        W32869   1.789  31.231  50.594
40946W        W32870  14.265  22.727  49.708
40947W        W32871  11.731  29.723  51.971
40948W        W32872  25.737  22.255  49.677
40949W        W32873  39.693  22.732  51.075
40950W        W32874  33.733  31.230  49.693
40951W        W32875  37.733  44.710  51.505
40952W        W32876  36.222  19.233  50.139
40953W        W32877  30.247  22.218  50.611
40954W        W32878  22.735  41.229  51.491
40955W        W32879  10.268   5.784  53.326
40956W        W32880  23.226  33.742  49.682
40957W        W32881  23.221  24.715  53.797
40958W        W32882   8.772  26.735  50.140
40959W        W32883  19.728  13.241  52.430
40960W        W32884  44.726   4.783  51.509
40961W        W32885  26.213  35.732  53.335
40962W        W32886   9.274  45.220  52.439
40963W        W32887  24.736   7.766  50.156
40964W        W32888  11.242  13.740  50.154
40965W        W32889  20.742   5.260  52.881
40966W        W32890   3.289   5.747  52.863
40967W        W32891  24.223  10.249  50.583
40968W        W32892  10.760  11.755  53.319
40969W        W32893  26.209   7.281  52.900
40970W        W32894  23.222  34.203  52.423
40971W        W32895  40.699  15.771  51.051
40972W        W32896   5.243   7.282  53.792
40973W        W32897  34.714   7.279  51.504
40974W        W32898  17.760  46.189  51.501
40975W        W32899  10.777  10.272  51.053
40976W        W32900  29.208  43.220  50.147
40977W        W32901   5.280  25.245  51.956
40978W        W32902  17.233   3.776  53.319
40979W        W32903   4.272   8.261  53.789
40980W        W32904  36.714   1.763  53.782
40981W        W32905  47.219  12.252  49.706
40982W        W32906  26.734  38.216  50.585
40983W        W32907  15.256  12.730  52.883
40984W        W32908  18.225  31.737  52.867
40985W        W32909  37.736  23.246  53.334
40986W        W32910   2.247  12.735  50.620
40987W        W32911  22.245  48.205  50.131
40988W        W32912  47.718  43.208  50.135
40989W        W32913  47.678  43.715  50.124
40990W        W32914  18.743   2.267  53.334
40991W        W32915  41.687  12.264  50.598
40992W        W32916  44.724  40.721  52.877
40993W        W32917  32.200  36.240  51.040
40994W        W32918  18.231  17.253  50.598
40995W        W32919   4.277  22.225  53.814
40996W        W32920  23.257  42.183  50.137
40997W        W32921   0.254  35.739  50.587
40998W        W32922  30.241  36.202  50.144
40999W        W32923  38.712  16.738  51.960
41000W        W32924  43.189  39.223  49.680
41001W        W32925  34.737  28.746  52.428
41002W        W32926  42.205  18.747  51.978
41003W        W32927   3.784  36.240  52.868
41004W        W32928  30.748  21.716  50.129
41005W        W32929   1.788  11.774  51.964
41006W        W32930  30.718   4.282  53.332
41007W        W32931  30.732  44.691  52.438
41008W        W32932   2.766   8.268  50.127
41009W        W32933  17.757  29.724  51.067
41010W        W32934   0.784  24.233  51.509
41011W        W32935  33.703  37.705  53.321
41012W        W32936  18.745  10.233  50.609
41013W        W32937  35.741  31.723  52.421
41014W        W32938  29.228   2.772  53.342
41015W        W32939  41.193  26.731  53.812
41016W        W32940  42.182  37.227  52.426
41017W        W32941  12.767   9.248  53.359
41018W        W32942  20.729  39.718  51.989
41019W        W32943  23.230  39.732  53.358
41020W        W32944  28.716  15.758  50.597
41021W        W32945   6.756  18.254  50.579
41022W        W32946   2.786   5.275  51.951
41023W        W32947  31.735  45.211  51.512
41024W        W32948  22.219  16.225  51.071
41025W        W32949  40.225   5.283  50.617
41026W        W32950  33.232  43.719  50.602
41027W        W32951  31.730  19.234  51.503
41028W        W32952  11.769  36.212  52.879
41029W        W32953  45.208  35.718  51.493
41030W        W32954  16.256  44.202  50.615
41031W        W32955  23.719   2.252  53.783
41032W        W32956  22.747  37.225  50.598
41033W        W32957  38.713  43.224  53.335
41034W        W32958  47.674  36.723  52.448
41035W        W32959   3.793  41.696  52.415
41036W        W32960  40.718  40.698  51.960
41037W        W32961  14.247   0.784  51.990
41038W        W32962  18.222  14.273  51.968
41039W        W32963  15.750  19.744  49.675
41040W        W32964  31.739  45.683  51.963
41041W        W32965  44.183   7.267  50.158
41042W        W32966  33.234  36.213  50.620
41043W        W32967   9.782   2.785  51.038
41044W        W32968  22.239   4.266  51.039
41045W        W32969  44.223  48.193  52.435
41046W        W32970  27.728  11.753  53.799
41047W        W32971   2.286  41.727  49.696
41048W        W32972  35.236  33.216  49.689
41049W        W32973  43.717  18.238  53.773
41050W        W32974  35.230  16.741  51.961
41051W        W32975  36.220   9.277  51.045
41052W        W32976  40.220  45.216  53.339
41053W        W32977  42.195  46.711  51.980
41054W        W32978  35.734  32.720  52.429
41055W        W32979   5.255  43.219  53.324
41056W        W32980  37.688  40.712  51.530
41057W        W32981  31.223  16.736  50.577
41058W        W32982  39.187  15.736  51.949
41059W        W32983  36.234  40.195  53.776
41060W        W32984  16.745  15.726  51.965
41061W        W32985  11.735  27.711  51.948
41062W        W32986  34.734  41.228  51.066
41063W        W32987  30.706   0.262  52.413
41064W        W32988  10.742  34.735  49.677
41065W        W32989  48.214  17.258  52.900
41066W        W32990  43.696  29.241  53.775
41067W        W32991  37.233  30.704  51.049
41068W        W32992  30.714  24.724  49.673
41069W        W32993  19.725  24.212  51.043
41070W        W32994   3.275  36.200  52.871
41071W        W32995   6.771  27.705  51.967
41072W        W32996  38.222  29.701  51.964
41073W        W32997  45.714  19.219  50.607
41074W        W32998  16.769  23.232  49.699
41075W        W32999  41.723  39.709  52.411
41076W        W33000  16.726   0.756  51.061
41077W        W33001  42.200  29.251  53.328
41078W        W33002  17.224   9.271  52.441
41079W        W33003  11.736   5.256  53.774
41080W        W33004  19.253  10.754  49.698
41081W        W33005   2.792   1.284  51.059
41082W        W33006   9.778  15.274  52.439
41083W        W33007  18.263  14.746  53.780
41084W        W33008  32.706   7.266  52.426
41085W        W33009  27.714  22.730  51.059
41086W        W33010  13.749  45.182  53.349
41087W        W33011  38.197  33.743  50.596
41088W        W33012  10.775  10.745  52.438
41089W        W33013  30.716  40.692  52.436
41090W        W33014   0.267   9.765  50.161
41091W        W33015  40.226  18.257  50.122
41092W        W33016  40.683  28.241  53.791
41093W        W33017  39.201  25.740  51.491
41094W        W33018  19.246  23.240  49.708
41095W        W33019  34.212  17.262  50.577
41096W        W33020  40.214  16.260  51.974
41097W        W33021  36.203   5.773  51.968
41098W        W33022  48.176   5.269  53.810
41099W        W33023   2.791  41.730  51.074
41100W        W33024  14.748  35.695  51.969
41101W        W33025  18.767  14.745  53.331
41102W        W33026  38.719   7.270  52.884
41103W        W33027  19.739  15.756  51.524
41104W        W33028  11.731   8.738  53.331
41105W        W33029  20.244  47.692  49.674
41106W        W33030  34.709  19.263  51.986
41107W        W33031  20.227  26.726  53.358
41108W        W33032  19.253  34.713  49.684
41109W        W33033  22.761  40.212  50.132
41110W        W33034  29.221  35.694  51.073
41111W        W33035   0.751   3.766  50.611
41112W        W33036  25.727  43.698  51.042
41113W        W33037   2.753  41.729  51.986
41114W        W33038  11.250  47.700  51.050
41115W        W33039   7.750   0.749  53.316
41116W        W33040   8.267  28.231  53.358
41117W        W33041  34.227  25.238  53.774
41118W        W33042  16.258  11.754  53.334
41119W        W33043  41.213  42.686  51.958
41120W        W33044  39.729  25.753  51.985
41121W        W33045  46.681  33.737  53.319
41122W        W33046  26.226  28.736  49.684
41123W        W33047  44.199  33.699  51.976
41124W        W33048  39.197  25.733  50.130
41125W        W33049  19.249  26.710  49.687
41126W        W33050  23.254  16.769  50.593
41127W        W33051  12.266  45.684  53.815
41128W        W33052  34.733  35.717  51.534
41129W        W33053  25.249   8.758  53.813
41130W        W33054  26.723   3.248  50.141
41131W        W33055  47.695  38.232  53.341
41132W        W33056  15.249  45.194  53.355
41133W        W33057  47.699   1.766  51.977
41134W        W33058  27.717  22.237  53.357
41135W        W33059   9.250  31.731  50.162
41136W        W33060  13.254  22.739  52.871
41137W        W33061  43.700   1.792  51.495
41138W        W33062  40.213  17.269  51.500
41139W        W33063  19.239   7.267  52.409
41140W        W33064  29.246  38.200  51.060
41141W        W33065   1.795  12.735  50.601
41142W        W33066  39.214  24.260  53.784
41143W        W33067  36.235  22.717  50.151
41144W        W33068   1.267   7.271  53.335
41145W        W33069  33.211  47.211  53.319
41146W        W33070   4.765   4.761  50.124
41147W        W33071  31.714  33.210  53.801
41148W        W33072   1.755  16.252  51.069
41149W        W33073  11.738  22.249  53.791
41150W        W33074  16.771  47.218  52.441
41151W        W33075  17.747   9.259  50.605
41152W        W33076  46.722  28.727  50.153
41153W        W33077  31.215  32.209  49.697
41154W        W33078  16.726  13.730  52.888
41155W        W33079  17.751  48.217  53.778
41156W        W33080   7.756  25.243  52.428
41157W        W33081  34.198  28.732  53.327
41158W        W33082  40.715   3.758  51.988
41159W        W33083  46.208   5.267  51.070
41160W        W33084  28.720  31.224  53.356
41161W        W33085  19.258  28.728  53.336
41162W        W33086  22.739  18.257  53.814
41163W        W33087  33.696  23.242  49.672
41164W        W33088  44.190  43.211  51.988
41165W        W33089  29.211  37.217  51.975
41166W        W33090  15.757   7.272  52.900
41167W        W33091  15.746  39.234  52.902
41168W        W33092   3.777   7.743  53.323
41169W        W33093  14.755  39.691  51.527
41170W        W33094  46.709  17.738  53.334
41171W        W33095  14.236   5.253  53.786
41172W        W33096  48.203  47.678  53.784
41173W        W33097  15.240  47.191  50.164
41174W        W33098   1.763  44.221  53.348
41175W        W33099   5.256  25.241  52.414
41176W        W33100  17.750  12.272  53.325
41177W        W33101  33.697  39.188  50.622
41178W        W33102   3.786   3.767  49.688
41179W        W33103  10.263  29.750  53.359
41180W        W33104  29.703  35.210  53.317
41181W        W33105  34.203   6.257  53.325
41182W        W33106   2.288  32.724  52.437
41183W        W33107  31.745  14.726  53.334
41184W        W33108  45.713  41.212  51.985
41185W        W33109  30.735   6.744  51.050
41186W        W33110  43.186  31.735  50.609
41187W        W33111  41.720  34.742  53.359
41188W        W33112  42.711  37.202  53.817
41189W        W33113  38.201  24.743  51.507
41190W        W33114  39.211   3.760  49.679
41191W        W33115  29.722   0.795  52.897
41192W        W33116  18.229  46.685  51.990
41193W        W33117   1.293   1.275  50.151
41194W        W33118  11.772  29.210  49.676
41195W        W33119   9.254  44.690  50.581
41196W        W33120  31.232  24.710  51.501
41197W        W33121  10.753  22.224  49.693
41198W        W33122  46.690  11.750  50.614
41199W        W33123   0.757  38.201  51.968
41200W        W33124  31.706  37.726  52.897
41201W        W33125  38.704  21.727  49.694
41202W        W33126  31.712  14.729  51.069
41203W        W33127  17.740  24.216  53.329
41204W        W33128  24.241  18.230  51.493
41205W        W33129  22.735  17.236  49.704
41206W        W33130  44.700  47.675  50.583
41207W        W33131  43.193  10.248  51.073
41208W        W33132   6.247   4.275  50.158
41209W        W33133  36.691  17.230  52.865
41210W        W33134  42.213  10.269  51.964
41211W        W33135  26.741   9.760  53.787
41212W        W33136  43.685   8.766  53.323
41213W        W33137   2.252  36.718  50.600
41214W        W33138  41.726  12.279  53.327
41215W        W33139  11.772  44.201  51.050
41216W        W33140  17.228  28.725  50.138
41217W        W33141  17.239   7.249  51.062
41218W        W33142  35.214  24.749  50.135
41219W        W33143  31.704  25.241  51.972
41220W        W33144  14.249  47.708  51.054
41221W        W33145  39.202  32.737  51.049
41222W        W33146  40.715  42.208  53.349
41223W        W33147  13.743  44.699  51.058
41224W        W33148  45.680  10.759  51.493
41225W        W33149  24.753  20.262  53.799
41226W        W33150  37.220   1.763  51.982
41227W        W33151   8.757  13.737  51.073
41228W        W33152   2.251  44.205  53.328
41229W        W33153  45.201  25.253  52.443
41230W        W33154  29.245   4.279  53.786
41231W        W33155  23.755  42.204  52.410
41232W        W33156  16.247  47.175  51.056
41233W        W33157   2.788  42.225  49.671
41234W        W33158  36.707  10.755  49.678
41235W        W33159  48.217   3.274  49.686
41236W        W33160  35.695   8.760  51.990
41237W        W33161   3.763  21.733  49.682
41238W        W33162  22.727  15.742  49.675
41239W        W33163   4.787  19.755  50.157
41240W        W33164  33.213   2.262  51.045
41241W        W33165  27.240  10.277  51.046
41242W        W33166  33.198  34.226  49.675
41243W        W33167  13.729  40.728  53.782
41244W        W33168  21.731  32.236  50.157
41245W        W33169  16.753  26.749  50.139
41246W        W33170  46.213  20.262  52.885
41247W        W33171  19.251  26.707  51.950
41248W        W33172  45.684  48.213  50.150
41249W        W33173  26.227  42.192  53.319
41250W        W33174   8.772  15.247  51.058
41251W        W33175  34.221  29.241  53.319
41252W        W33176  44.214  39.715  49.685
41253W        W33177  34.722  20.229  52.439
41254W        W33178  22.755  38.207  50.593
41255W        W33179  22.761  42.691  51.073
41256W        W33180  34.742   9.236  50.152
41257W        W33181  19.748   5.770  51.985
41258W        W33182  10.235  18.756  51.075
41259W        W33183  42.724  46.698  49.706
41260W        W33184  23.223  47.717  52.883
41261W        W33185  25.245  27.223  53.332
41262W        W33186   5.289  36.196  51.504
41263W        W33187  35.702  34.721  50.133
41264W        W33188  34.706   3.248  53.787
41265W        W33189   8.741   9.780  49.679
41266W        W33190  31.199   3.272  50.132
41267W        W33191  10.751  32.237  52.881
41268W        W33192  36.202   2.750  51.968
41269W        W33193  25.254   1.250  49.705
41270W        W33194   0.786   1.761  52.859
41271W        W33195  40.690  36.236  49.675
41272W        W33196   5.748  25.221  53.344
41273W        W33197  48.184  47.181  52.404
41274W        W33198  30.206  31.718  51.076
41275W        W33199  16.764  20.735  52.885
41276W        W33200  15.752  44.192  53.809
41277W        W33201   7.241  22.728  53.318
41278W        W33202   5.744  21.762  52.885
41279W        W33203  45.196  23.213  51.073
41280W        W33204  45.682   0.776  52.880
41281W        W33205  32.743  11.276  53.350
41282W        W33206  30.713  10.238  53.340
41283W        W33207  26.740  20.754  53.318
41284W        W33208   0.297  20.228  51.963
41285W        W33209  10.752   1.262  50.155
41286W        W33210  21.714  30.249  52.895
41287W        W33211  34.715  32.226  52.900
41288W        W33212  30.702   7.271  53.773
41289W        W33213  41.207  36.733  51.522
41290W        W33214   4.258  10.263  51.054
41291W        W33215  11.257  36.213  51.039
41292W        W33216  44.683  37.207  51.077
41293W        W33217   6.241  13.238  53.336
41294W        W33218  20.255   4.760  50.153
41295W        W33219   0.280  32.737  53.811
41296W        W33220  32.717  36.736  50.588
41297W        W33221  34.212  31.712  52.406
41298W        W33222  43.724   0.761  50.578
41299W        W33223  12.258  45.225  52.888
41300W        W33224  47.203  34.221  51.958
41301W        W33225  16.763   7.783  51.946
41302W        W33226  10.763   8.761  51.492
41303W        W33227  38.700  44.183  52.883
41304W        W33228  40.703   7.738  53.801
41305W        W33229  47.706  45.207  52.407
41306W        W33230  29.238   7.246  50.152
41307W        W33231   5.251  12.740  49.708
41308W        W33232   5.782   8.273  51.499
41309W        W33233  14.759  10.762  53.319
41310W        W33234  44.704  30.718  51.499
41311W        W33235  10.278  33.729  51.989
41312W        W33236  21.223  26.753  53.786
41313W        W33237  48.205  36.199  49.691
41314W        W33238  46.195   6.744  53.798
41315W        W33239  20.244  11.743  53.320
41316W        W33240  32.215  35.698  53.347
41317W        W33241  10.760  45.716  49.676
41318W        W33242  27.225  31.246  53.357
41319W        W33243   9.783  44.195  50.598
41320W        W33244  28.215   4.787  53.316
41321W        W33245  46.677  29.218  52.873
41322W        W33246  35.719  45.211  50.122
41323W        W33247  29.212  44.207  52.429
41324W        W33248  32.733  14.767  51.063
41325W        W33249  15.246  43.679  52.412
41326W        W33250  11.735  34.731  50.581
41327W        W33251  13.241  47.698  52.423
41328W        W33252  36.217  37.196  50.153
41329W        W33253  34.716  14.251  53.355
41330W        W33254  42.226  22.236  49.690
41331W        W33255  10.235  17.736  53.350
41332W        W33256   1.263  19.726  51.515
41333W        W33257  17.722   8.750  50.125
41334W        W33258   6.775   1.769  52.448
41335W        W33259  41.229  35.714  51.491
41336W        W33260  20.252   9.238  52.403
41337W        W33261  21.738  44.215  52.406
41338W        W33262  24.714  32.210  49.674
41339W        W33263  42.718   7.764  50.151
41340W        W33264  11.743  33.231  51.526
41341W        W33265  16.755  37.708  53.815
41342W        W33266  29.221  14.256  51.987
41343W        W33267  38.196  35.197  51.968
41344W        W33268  28.739  23.219  52.897
41345W        W33269  26.255  43.697  51.074
41346W        W33270  43.684  24.219  53.342
41347W        W33271  35.737   0.750  52.437
41348W        W33272  11.751  27.718  50.162
41349W        W33273   9.775   1.284  53.817
41350W        W33274  10.234  29.749  52.890
41351W        W33275  41.190   3.249  52.423
41352W        W33276  42.725  37.225  50.122
41353W        W33277  42.185  26.742  51.059
41354W        W33278  14.258   1.278  51.517
41355W        W33279  27.206   3.755  51.520
41356W        W33280  45.702  43.688  52.413
41357W        W33281   1.782  27.253  50.578
41358W        W33282  27.238   9.771  52.432
41359W        W33283   8.266   1.269  52.897
41360W        W33284  43.680  38.224  53.326
41361W        W33285  10.750  17.758  53.772
41362W        W33286  27.225  25.220  49.684
41363W        W33287   9.278  20.730  51.971
41364W        W33288   3.786   5.253  53.782
41365W        W33289  33.732  10.760  51.045
41366W        W33290  12.763  45.203  50.620
41367W        W33291   2.771  43.709  51.968
41368W        W33292  11.741  17.749  51.980
41369W        W33293   9.747  11.257  50.151
41370W        W33294  44.216   0.293  52.434
41371W        W33295  21.216  11.281  51.045
41372W        W33296  24.217  12.247  51.956
41373W        W33297  35.734  46.217  51.074
41374W        W33298  15.739  36.234  53.817
41375W        W33299  11.239  20.257  51.500
41376W        W33300  23.237  29.217  52.405
41377W        W33301  33.725   9.756  53.772
41378W        W33302  30.717  22.259  50.608
41379W        W33303  19.759  16.250  51.058
41380W        W33304  19.732  42.700  50.136
41381W        W33305  45.202   4.256  52.870
41382W        W33306   8.778   6.742  51.053
41383W        W33307  27.707  11.274  51.063
41384W        W33308  20.721  15.741  51.953
41385W        W33309  48.202  26.207  50.151
41386W        W33310  20.257  47.196  53.335
41387W        W33311  28.737  13.732  52.425
41388W        W33312  33.208  21.722  51.968
41389W        W33313   1.755  41.191  49.678
41390W        W33314  41.230  32.247  53.352
41391W        W33315  17.728   3.760  51.060
41392W        W33316  13.255   8.262  52.865
41393W        W33317  11.277  15.236  50.150
41394W        W33318  31.700  17.259  51.529
41395W        W33319  36.708  40.694  52.874
41396W        W33320  47.191  34.200  52.895
41397W        W33321  17.733  25.727  50.151
41398W        W33322  24.254  41.219  51.977
41399W        W33323   1.795  29.712  50.614
41400W        W33324  18.734  28.204  52.866
41401W        W33325  29.210  10.753  51.966
41402W        W33326   5.260  40.228  50.611
41403W        W33327  29.739   6.286  51.047
41404W        W33328  35.224  27.234  51.956
41405W        W33329   2.255  35.722  52.405
41406W        W33330  35.693  17.222  51.517
41407W        W33331   0.756  15.729  52.404
41408W        W33332  48.190  17.259  50.159
41409W        W33333  27.207  16.754  50.123
41410W        W33334  47.213  11.263  51.964
41411W        W33335  28.207  37.688  51.073
41412W        W33336  27.735  31.739  51.955
41413W        W33337  12.747   2.288  51.035
41414W        W33338  41.728  23.735  52.876
41415W        W33339  39.233  10.748  51.501
41416W        W33340  30.237  11.232  51.502
41417W        W33341  34.716   0.297  52.419
41418W        W33342  14.248  42.687  52.883
41419W        W33343  28.252  14.744  50.133
41420W        W33344  29.251  45.190  51.507
41421W        W33345   1.281  39.733  50.134
41422W        W33346  43.219  23.246  50.162
41423W        W33347  10.736  38.687  53.814
41424W        W33348   5.774  26.734  51.038
41425W        W33349  11.245  15.236  49.698
41426W        W33350  40.690   8.739  53.792
41427W        W33351  11.741  38.229  52.889
41428W        W33352  44.207   3.279  50.142
41429W        W33353  24.254  38.693  50.585
41430W        W33354  39.691  24.214  51.970
41431W        W33355   8.780  32.225  51.077
41432W        W33356  17.256   5.290  52.443
41433W        W33357  28.206  46.694  50.122
41434W        W33358   1.753  46.714  50.137
41435W        W33359  11.274  33.716  52.893
41436W        W33360   3.792  26.215  53.329
41437W        W33361  17.739  46.712  49.692
41438W        W33362  41.190  15.234  49.708
41439W        W33363  48.214  39.222  49.689
41440W        W33364  31.246   4.249  50.147
41441W        W33365  46.674  27.250  51.516
41442W        W33366  40.728  46.186  49.699
41443W        W33367  15.254  35.695  53.790
41444W        W33368  34.231  34.234  52.888
41445W        W33369  29.246  41.197  50.166
41446W        W33370  35.719  17.765  53.784
41447W        W33371  34.704  14.726  51.527
41448W        W33372   0.788  31.221  53.316
41449W        W33373  10.743  24.716  51.509
41450W        W33374  15.773  13.772  51.037
41451W        W33375  33.717  47.701  51.494
41452W        W33376  45.210  20.759  52.901
41453W        W33377  20.260  14.740  51.065
41454W        W33378  25.744   6.762  50.125
41455W        W33379   7.254  10.749  52.880
41456W        W33380  24.218  10.773  50.613
41457W        W33381  32.744  18.225  51.062
41458W        W33382  35.217   1.775  53.322
41459W        W33383  26.207   3.785  51.990
41460W        W33384  35.201  31.199  53.813
41461W        W33385  23.259  47.699  53.774
41462W        W33386  21.257  23.253  51.071
41463W        W33387  11.748  28.738  53.788
41464W        W33388  21.716  39.232  50.140
41465W        W33389  44.725  10.265  53.812
41466W        W33390  12.232  41.703  51.992
41467W        W33391  47.686  44.697  52.417
41468W        W33392  23.745   0.795  52.422
41469W        W33393  25.736   3.754  49.671
41470W        W33394  43.199  18.234  53.779
41471W        W33395  41.214  36.738  51.965
41472W        W33396  23.249   0.291  50.156
41473W        W33397  30.214  38.209  51.952
41474W        W33398   2.291  46.177  51.050
41475W        W33399  31.735  33.731  50.601
41476W        W33400  25.228  29.719  52.869
41477W        W33401  26.710   2.787  52.878
41478W        W33402   8.277  30.714  50.147
41479W        W33403  26.721  30.732  51.956
41480W        W33404   1.262  17.261  49.665
41481W        W33405  21.738  17.752  51.958
41482W        W33406   0.769  16.246  50.587
41483W        W33407  43.693   3.792  52.872
41484W        W33408  34.713  41.183  50.590
41485W        W33409   3.245  26.711  52.427
41486W        W33410  32.730  19.761  50.589
41487W        W33411  21.758   8.266  51.511
41488W        W33412   2.259   9.760  51.515
41489W        W33413  45.180  41.190  50.157
41490W        W33414  25.713  34.713  49.698
41491W        W33415  35.203  23.733  51.974
41492W        W33416   3.278  32.246  50.580
41493W        W33417   9.783  14.741  51.991
41494W        W33418  31.211  39.710  49.706
41495W        W33419  28.715   5.265  53.808
41496W        W33420  19.735   8.781  51.976
41497W        W33421  13.272   1.293  51.964
41498W        W33422  31.715  23.241  49.699
41499W        W33423  10.250   6.255  50.621
41500W        W33424   3.794  18.257  53.342
41501W        W33425  19.758  18.726  52.876
41502W        W33426  43.185  16.238  49.668
41503W        W33427  32.200   5.755  49.707
41504W        W33428  23.714   7.241  53.319
41505W        W33429  18.765  14.766  51.974
41506W        W33430  38.709   1.270  52.414
41507W        W33431   4.265  15.253  51.533
41508W        W33432   0.298  38.214  53.346
41509W        W33433  21.255   8.778  53.342
41510W        W33434  13.747  29.744  53.802
41511W        W33435  33.713  12.240  51.972
41512W        W33436  40.213  34.228  52.419
41513W        W33437  41.717   3.279  49.699
41514W        W33438  17.229  38.717  51.521
41515W        W33439  33.726  44.724  53.354
41516W        W33440  45.183  17.238  50.579
41517W        W33441  23.746   2.778  53.778
41518W        W33442  12.242  10.242  53.346
41519W        W33443  47.708  14.269  51.966
41520W        W33444  21.249  32.734  53.342
41521W        W33445  32.711  42.214  50.152
41522W        W33446  38.706  14.744  51.077
41523W        W33447  19.247  47.684  51.497
41524W        W33448  33.704  45.213  49.695
41525W        W33449  29.705  44.189  51.079
41526W        W33450   5.253  36.702  53.793
41527W        W33451  19.258   3.775  50.594
41528W        W33452  33.208  19.766  53.790
41529W        W33453  28.226  34.698  52.432
41530W        W33454  13.740   6.770  51.506
41531W        W33455   4.269  43.187  52.865
41532W        W33456  23.713  40.716  52.434
41533W        W33457  25.224  12.235  49.707
41534W        W33458  40.227  30.219  52.882
41535W        W33459   7.253  46.705  53.333
41536W        W33460   2.279  13.743  50.126
41537W        W33461  31.222   8.769  52.406
41538W        W33462  19.731  35.731  53.336
41539W        W33463  15.257   4.751  51.036
41540W        W33464  26.707  15.727  50.598
41541W        W33465  41.182  23.251  52.888
41542W        W33466  36.220   5.251  50.586
41543W        W33467  35.242  17.747  50.164
41544W        W33468  20.266  24.717  51.501
41545W        W33469  23.249   7.752  49.673
41546W        W33470  21.752  44.221  51.072
41547W        W33471   5.764  30.236  49.691
41548W        W33472  35.739  23.722  51.043
41549W        W33473  39.221  39.714  50.614
41550W        W33474  28.741  40.210  50.147
41551W        W33475  30.718  47.192  49.703
41552W        W33476  19.238  15.754  50.580
41553W        W33477  48.197   1.277  49.682
41554W        W33478  39.721  44.194  51.528
41555W        W33479  19.740   5.784  52.416
41556W        W33480  18.724  26.728  52.864
41557W        W33481  22.225   1.748  50.600
41558W        W33482   8.285   0.757  51.067
41559W        W33483  28.220  26.722  52.419
41560W        W33484  44.701  19.221  51.071
41561W        W33485  13.270  40.723  50.615
41562W        W33486  28.725  29.225  51.986
41563W        W33487   4.747  29.223  50.124
41564W        W33488   1.790  25.733  50.594
41565W        W33489  18.236  26.247  50.606
41566W        W33490   5.271  36.729  51.064
41567W        W33491  47.179  16.267  53.812
41568W        W33492  42.199  15.752  51.978
41569W        W33493   5.242  39.197  53.361
41570W        W33494  15.763   7.787  53.780
41571W        W33495  42.226  22.720  51.057
41572W        W33496  21.743  18.251  51.053
41573W        W33497  12.275  22.753  51.490
41574W        W33498  23.257  24.745  49.697
41575W        W33499  26.730  48.218  50.617
41576W        W33500   6.274  12.261  50.136
41577W        W33501   5.782  23.713  51.059
41578W        W33502  31.719  27.707  49.693
41579W        W33503  39.733  47.203  52.403
41580W        W33504  27.726  46.722  53.336
41581W        W33505  34.720   9.782  51.044
41582W        W33506  35.199  39.194  50.151
41583W        W33507  34.238  20.235  51.975
41584W        W33508  24.738  13.277  50.579
41585W        W33509  25.235  14.754  51.965
41586W        W33510  42.691  12.240  51.530
41587W        W33511   0.769  22.250  52.875
41588W        W33512  43.720  45.198  51.055
41589W        W33513  23.259   0.291  52.433
41590W        W33514  35.721  19.767  51.498
41591W        W33515  36.728  45.207  51.535
41592W        W33516  35.206   6.276  52.868
41593W        W33517   2.257  29.711  53.803
41594W        W33518  36.729   2.281  50.141
41595W        W33519  15.760  22.243  53.809
41596W        W33520   1.749  30.702  51.043
41597W        W33521  38.227  42.229  49.708
41598W        W33522   4.263  34.718  53.330
41599W        W33523  47.684  18.268  51.492
41600W        W33524  16.238  14.246  50.611
41601W        W33525  40.228  39.730  49.665
41602W        W33526  37.195  11.242  50.151
41603W        W33527  45.697  21.735  53.341
41604W        W33528  29.224   8.248  52.888
41605W        W33529  36.699  34.710  51.519
41606W        W33530  40.731  42.226  50.123
41607W        W33531  29.205  20.237  52.873
41608W        W33532  39.692  30.724  50.130
41609W        W33533  15.751   3.772  52.903
41610W        W33534   0.795   0.760  51.066
41611W        W33535  16.223  44.181  52.415
41612W        W33536  38.234  20.734  52.866
41613W        W33537  38.208  39.216  49.705
41614W        W33538  22.262  39.204  52.891
41615W        W33539  16.255  41.189  49.667
41616W        W33540  46.198   3.787  52.864
41617W        W33541  31.699  37.734  51.514
41618W        W33542  17.731  48.218  52.403
41619W        W33543  12.775  38.697  51.499
41620W        W33544  46.202   5.789  52.437
41621W        W33545   3.258  33.203  53.358
41622W        W33546   4.279   6.745  53.790
41623W        W33547   9.242  19.762  51.506
41624W        W33548  13.274  36.235  51.501
41625W        W33549   4.754   5.263  51.501
41626W        W33550  11.277  41.705  51.065
41627W        W33551  39.231  11.239  49.681
41628W        W33552  21.734  20.263  52.436
41629W        W33553  18.757  14.756  49.688
41630W        W33554  41.208  39.208  50.586
41631W        W33555  23.249  29.236  52.892
41632W        W33556  36.700  37.223  51.066
41633W        W33557   3.276  18.738  53.352
41634W        W33558  18.750  27.214  53.810
41635W        W33559  40.207  35.722  53.326
41636W        W33560  33.202  10.234  50.146
41637W        W33561  38.199  46.206  49.686
41638W        W33562   6.271  20.722  53.777
41639W        W33563   9.739  11.761  51.959
41640W        W33564  44.712  35.705  51.523
41641W        W33565  24.213  14.748  51.052
41642W        W33566  39.186   4.763  51.524
41643W        W33567  23.245  28.731  53.793
41644W        W33568  10.275  32.728  49.665
41645W        W33569  36.698  40.709  52.405
41646W        W33570  32.239   1.751  52.898
41647W        W33571   0.251  39.186  51.984
41648W        W33572  24.720   9.253  50.604
41649W        W33573  32.243  34.228  53.361
41650W        W33574   6.253  24.721  50.622
41651W        W33575  24.251  28.227  50.134
41652W        W33576  22.728  44.682  51.969
41653W        W33577   1.272  23.237  52.891
41654W        W33578   1.260   0.759  52.412
41655W        W33579   0.283  46.719  49.666
41656W        W33580  35.232  21.225  50.605
41657W        W33581   5.775  19.728  51.073
41658W        W33582  15.758  25.214  51.955
41659W        W33583  30.215  17.760  53.810
41660W        W33584   8.259  39.720  49.671
41661W        W33585  18.231  34.720  53.346
41662W        W33586   7.260  15.233  51.074
41663W        W33587   3.256  15.245  51.073
41664W        W33588  34.728  26.249  50.142
41665W        W33589   3.747  42.198  50.591
41666W        W33590  27.747  11.754  51.496
41667W        W33591   2.756  18.238  52.417
41668W        W33592  25.743  21.741  49.673
41669W        W33593  11.279  31.235  51.052
41670W        W33594  24.212  37.216  51.507
41671W        W33595  34.213  28.249  53.796
41672W        W33596  33.703  38.725  53.347
41673W        W33597  35.199  14.230  50.607
41674W        W33598  26.253  47.189  50.162
41675W        W33599  47.173  13.776  53.353
41676W        W33600  23.758  34.732  50.139
41677W        W33601  37.205  10.744  52.420
41678W        W33602  47.214  45.705  51.512
41679W        W33603  29.223  31.201  53.790
41680W        W33604  45.724  18.242  53.800
41681W        W33605  24.258  45.716  51.531
41682W        W33606  39.728  16.262  53.356
41683W        W33607  29.708   9.261  51.037
41684W        W33608  44.693  34.696  49.705
41685W        W33609  28.253  15.760  51.074
41686W        W33610  10.239  29.219  49.670
41687W        W33611   2.283  18.768  51.968
41688W        W33612   1.767  31.235  51.989
41689W        W33613  33.230  21.730  53.799
41690W        W33614  19.759  17.229  51.038
41691W        W33615  13.248  15.758  52.435
41692W        W33616   9.239  21.760  53.331
41693W        W33617  47.683   1.761  52.433
41694W        W33618  35.222   4.252  50.588
41695W        W33619  28.218  37.218  51.074
41696W        W33620  39.730  46.714  51.528
41697W        W33621  16.759   1.288  52.424
41698W        W33622  28.752  15.247  53.327
41699W        W33623  20.251   7.239  49.687
41700W        W33624  11.243  33.225  51.947
41701W        W33625  10.779  21.745  51.507
41702W        W33626  42.210  32.210  53.342
41703W        W33627   1.260  18.223  51.530
41704W        W33628   3.281  11.239  53.349
41705W        W33629  37.217  47.709  52.882
41706W        W33630  21.253   2.259  52.868
41707W        W33631  38.222  16.254  52.898
41708W        W33632  46.203  33.210  52.416
41709W        W33633   6.273  32.734  51.951
41710W        W33634  43.183   5.768  50.126
41711W        W33635  38.705  33.214  53.775
41712W        W33636  43.192  46.702  49.677
41713W        W33637   8.285   3.751  51.511
41714W        W33638  11.772  30.245  51.062
41715W        W33639  16.262  41.212  53.316
41716W        W33640  32.246   8.263  53.341
41717W        W33641  27.729  19.227  53.785
41718W        W33642  35.711  40.226  50.143
41719W        W33643  16.767  36.195  50.597
41720W        W33644  24.243  33.731  50.161
41721W        W33645  12.735  21.753  50.149
41722W        W33646   4.763  43.195  52.426
41723W        W33647  20.222  30.205  50.619
41724W        W33648  12.737  14.245  50.136
41725W        W33649  24.231  27.244  52.882
41726W        W33650  40.731  40.686  49.664
41727W        W33651  39.716  35.721  53.320
41728W        W33652  35.213  22.726  50.591
41729W        W33653  29.708  32.221  51.972
41730W        W33654   6.257  24.724  51.061
41731W        W33655  17.727  23.717  52.442
41732W        W33656  16.757  32.706  52.428
41733W        W33657  26.251  32.725  52.897
41734W        W33658  20.232  46.710  53.320
41735W        W33659  15.260  28.736  53.338
41736W        W33660  21.754  11.738  51.952
41737W        W33661  31.234   9.282  53.361
41738W        W33662  46.192  36.720  52.428
41739W        W33663  32.734  13.245  53.321
41740W        W33664  22.735  18.759  50.138
41741W        W33665  38.702   9.266  51.492
41742W        W33666   3.293   5.265  50.593
41743W        W33667  11.254  38.212  53.355
41744W        W33668   0.296  32.228  53.783
41745W        W33669  23.739  40.204  51.535
41746W        W33670  25.748  19.748  50.600
41747W        W33671  43.219  40.232  50.588
41748W        W33672  35.735  33.736  53.329
41749W        W33673   6.785  31.702  51.505
41750W        W33674  27.245  23.757  52.412
41751W        W33675  33.222  39.689  51.986
41752W        W33676  16.725   9.740  50.590
41753W        W33677   4.755  12.244  51.530
41754W        W33678   0.771  12.239  50.579
41755W        W33679  22.745  40.696  50.141
41756W        W33680  35.734  11.235  51.525
41757W        W33681  18.229  35.706  50.608
41758W        W33682  28.745  32.709  53.813
41759W        W33683  26.749   2.765  51.963
41760W        W33684   0.765  27.222  52.420
41761W        W33685  33.224  31.230  51.062
41762W        W33686   3.784  38.692  52.408
41763W        W33687  47.207  34.710  49.706
41764W        W33688  45.209  47.190  53.325
41765W        W33689   5.246  43.184  51.044
41766W        W33690  10.781   8.238  51.527
41767W        W33691  36.195   1.282  52.866
41768W        W33692   0.770   7.275  50.606
41769W        W33693  21.264  27.248  52.432
41770W        W33694  11.235  10.756  51.502
41771W        W33695  37.702  21.728  51.053
41772W        W33696   7.285  30.206  50.606
41773W        W33697   9.781  40.201  49.703
41774W        W33698  33.216   0.290  52.861
41775W        W33699  46.708  47.709  53.809
41776W        W33700  25.734  19.744  52.438
41777W        W33701  27.215  38.686  51.973
41778W        W33702  41.684  20.251  52.407
41779W        W33703  25.736  38.210  50.622
41780W        W33704  22.724  12.263  51.059
41781W        W33705  38.690  29.723  50.622
41782W        W33706  35.732  35.732  52.886
41783W        W33707  47.672  22.743  49.671
41784W        W33708  18.236   0.268  51.947
41785W        W33709  46.214  25.745  51.523
41786W        W33710  11.238  41.216  49.675
41787W        W33711  21.224   8.764  52.410
41788W        W33712  24.744  36.222  52.410
41789W        W33713  21.247  29.203  53.797
41790W        W33714  33.213  24.727  52.888
41791W        W33715   8.740   1.282  49.706
41792W        W33716   7.282   4.751  51.506
41793W        W33717  19.720   1.793  52.863
41794W        W33718  38.196  34.206  52.901
41795W        W33719   2.280   2.274  51.971
41796W        W33720  43.214   0.766  50.156
41797W        W33721   2.273  32.711  51.519
41798W        W33722  43.190  19.232  53.805
41799W        W33723   9.767  22.743  51.977
41800W        W33724  33.218  36.708  49.683
41801W        W33725  20.253  20.739  53.777
41802W        W33726   9.755   6.771  53.316
41803W        W33727  28.211  33.199  50.164
41804W        W33728   4.779   6.774  50.595
41805W        W33729  31.733  27.206  50.619
41806W        W33730  42.698  19.744  51.047
41807W        W33731  41.187   7.754  53.788
41808W        W33732   3.279   1.275  49.701
41809W        W33733  37.232   1.276  53.328
41810W        W33734   8.284  14.728  52.447
41811W        W33735   2.767  16.229  50.591
41812W        W33736  16.766  33.728  52.433
41813W        W33737  23.728  13.254  52.418
41814W        W33738  35.733  10.763  50.581
41815W        W33739   1.759   2.774  50.140
41816W        W33740  28.243  34.235  52.408
41817W        W33741  13.746   2.254  53.797
41818W        W33742  39.195  37.213  51.036
41819W        W33743  35.222  36.237  52.896
41820W        W33744   0.254  21.224  51.949
41821W        W33745   2.262  43.698  52.418
41822W        W33746  17.268  44.215  53.785
41823W        W33747  29.729  33.223  50.602
41824W        W33748  23.725   1.775  49.706
41825W        W33749  41.226  14.234  52.878
41826W        W33750  41.198  18.236  51.072
41827W        W33751  42.697  39.692  51.991
41828W        W33752  18.249  15.235  50.152
41829W        W33753  38.191   0.273  51.499
41830W        W33754  47.190  45.183  52.874
41831W        W33755  48.209  37.721  50.607
41832W        W33756  11.744  17.739  51.034
41833W        W33757  37.726  26.254  50.130
41834W        W33758  40.728   3.280  50.601
41835W        W33759  48.199  11.235  52.441
41836W        W33760   6.787  36.216  51.044
41837W        W33761  26.745  12.735  53.338
41838W        W33762  19.242  38.704  52.890
41839W        W33763  22.227  45.221  53.318
41840W        W33764   9.249  21.754  53.782
41841W        W33765  20.716  43.206  50.597
41842W        W33766   4.268  25.741  53.784
41843W        W33767  32.222  11.778  49.708
41844W        W33768  26.241   5.789  53.796
41845W        W33769  15.229  18.751  51.041
41846W        W33770   0.274  14.743  50.612
41847W        W33771  40.708  38.192  53.352
41848W        W33772  22.760   3.265  50.166
41849W        W33773  18.223   5.758  51.947
41850W        W33774  19.245   5.267  53.806
41851W        W33775  31.716  23.224  53.781
41852W        W33776  42.214  10.242  50.606
41853W        W33777   9.265  16.273  50.146
41854W        W33778  46.206  37.715  50.128
41855W        W33779  29.735  26.229  50.579
41856W        W33780  20.255  13.751  52.895
41857W        W33781   4.279  42.196  51.044
41858W        W33782  34.242  17.741  50.163
41859W        W33783   3.747  18.256  51.053
41860W        W33784  11.278  16.226  50.605
41861W        W33785   8.761  44.197  51.975
41862W        W33786  38.687  22.758  50.611
41863W        W33787  40.705  43.207  51.074
41864W        W33788   5.780  36.690  52.896
41865W        W33789  14.261  28.752  52.866
41866W        W33790  16.724  34.243  51.042
41867W        W33791  38.696   1.284  49.686
41868W        W33792  11.278   3.277  52.860
41869W        W33793   6.272  14.731  50.583
41870W        W33794  34.228  45.684  50.151
41871W        W33795   9.751   9.783  53.814
41872W        W33796  16.731  28.204  53.317
41873W        W33797  44.678  41.717  49.697
41874W        W33798  23.755  17.740  52.410
41875W        W33799  16.769  38.230  50.590
41876W        W33800  35.716  45.705  51.529
41877W        W33801  45.716  37.220  50.146
41878W        W33802  18.257  41.722  53.348
41879W        W33803  14.248  46.223  49.679
41880W        W33804  15.252  42.189  52.863
41881W        W33805  30.724  26.227  49.699
41882W        W33806  31.207  43.223  50.589
41883W        W33807   9.272  43.222  52.872
41884W        W33808  17.243  37.214  50.615
41885W        W33809  18.261   2.762  53.779
41886W        W33810  21.225   9.284  51.990
41887W        W33811  24.210   1.268  50.605
41888W        W33812  25.256  43.196  53.775
41889W        W33813  13.766  36.736  51.529
41890W        W33814  25.243  24.246  50.618
41891W        W33815  42.207  24.211  53.320
41892W        W33816  18.256  14.262  51.070
41893W        W33817  32.731  13.273  53.787
41894W        W33818  11.270   1.753  51.515
41895W        W33819  13.239  19.252  50.156
41896W        W33820  28.703  43.225  53.777
41897W        W33821  14.737  23.242  49.681
41898W        W33822  45.707  21.743  53.776
41899W        W33823  23.730   6.749  50.131
41900W        W33824  24.747  38.729  51.496
41901W        W33825  33.694  42.718  53.353
41902W        W33826  20.245  41.693  49.709
41903W        W33827   9.764  40.690  51.506
41904W        W33828  43.708   0.255  49.673
41905W        W33829  40.222  36.231  52.867
41906W        W33830  43.725  12.742  52.871
41907W        W33831  32.709  32.741  51.054
41908W        W33832  39.232  18.256  52.868
41909W        W33833   6.774   9.279  53.333
41910W        W33834  18.732  46.222  52.442
41911W        W33835  12.736  30.705  50.161
41912W        W33836  30.207  31.219  53.344
41913W        W33837   8.745  41.223  53.805
41914W        W33838  37.700   0.794  52.887
41915W        W33839  19.731  37.736  49.692
41916W        W33840  30.703   9.762  50.164
41917W        W33841  45.687  47.696  52.895
41918W        W33842  26.247  14.259  53.790
41919W        W33843  14.264  18.235  51.981
41920W        W33844  35.206  20.245  50.584
41921W        W33845  40.720  14.263  52.870
41922W        W33846  35.241  41.222  50.147
41923W        W33847  36.237  20.258  52.889
41924W        W33848  12.234  22.738  50.148
41925W        W33849   5.248  28.207  53.342
41926W        W33850  19.762  24.729  52.439
41927W        W33851  34.222  27.722  53.792
41928W        W33852  40.724  45.195  51.044
41929W        W33853  21.726  12.738  52.866
41930W        W33854  20.259  30.735  53.790
41931W        W33855  26.714  21.246  53.339
41932W        W33856  19.745  17.723  51.980
41933W        W33857  47.683   3.272  51.039
41934W        W33858   7.240  42.687  50.166
41935W        W33859   0.275  36.713  51.977
41936W        W33860  29.240   4.759  52.431
41937W        W33861  29.241  42.703  52.865
41938W        W33862  12.736   0.778  51.988
41939W        W33863  28.745   2.748  51.992
41940W        W33864  37.721  28.752  53.802
41941W        W33865   2.792  46.703  50.616
41942W        W33866  19.233  27.249  51.063
41943W        W33867  44.220  17.770  50.619
41944W        W33868  38.690  38.686  50.589
41945W        W33869  14.759  18.722  51.039
41946W        W33870  12.770  44.692  53.802
41947W        W33871  17.743  32.736  51.947
41948W        W33872  38.687  23.717  52.893
41949W        W33873  30.230  32.730  51.958
41950W        W33874   7.287  10.764  50.602
41951W        W33875  21.240  16.753  50.603
41952W        W33876  37.213   7.248  50.160
41953W        W33877  38.718  29.708  49.709
41954W        W33878   7.286  15.227  50.121
41955W        W33879  34.237  28.224  50.123
41956W        W33880  39.199   6.250  53.813
41957W        W33881  26.754  47.175  50.123
41958W        W33882  38.705   3.749  53.790
41959W        W33883   4.761  22.248  50.157
41960W        W33884  10.236  40.698  50.121
41961W        W33885  38.704  22.237  53.792
41962W        W33886  25.250  37.734  53.801
41963W        W33887  32.737  34.234  51.052
41964W        W33888  13.773  48.186  53.795
41965W        W33889   3.767  15.232  53.341
41966W        W33890  44.680  26.733  51.954
41967W        W33891  31.746   0.770  53.317
41968W        W33892  44.679  18.247  53.817
41969W        W33893  32.713   0.770  51.502
41970W        W33894  45.214   5.783  50.582
41971W        W33895  41.182  45.187  51.042
41972W        W33896  45.691  34.196  51.968
41973W        W33897  41.701  43.679  53.796
41974W        W33898  38.236  27.741  52.422
41975W        W33899   2.261  40.729  51.989
41976W        W33900  22.220  21.248  53.816
41977W        W33901  30.702  11.244  51.951
41978W        W33902  15.766  15.234  53.774
41979W        W33903   8.738  34.738  51.947
41980W        W33904  25.748  43.220  50.136
41981W        W33905  22.234  25.248  53.321
41982W        W33906  39.734  40.201  51.517
41983W        W33907  18.238   5.780  52.860
41984W        W33908  18.241  36.234  50.617
41985W        W33909   1.748  14.258  53.317
41986W        W33910  14.762  42.225  51.059
41987W        W33911  28.734  31.248  49.690
41988W        W33912   2.758  41.185  53.817
41989W        W33913  43.706  41.197  51.500
41990W        W33914   3.750  44.215  53.324
41991W        W33915  33.706  21.735  51.500
41992W        W33916   2.290  22.255  50.604
41993W        W33917  36.198   8.742  51.511
41994W        W33918  25.223  12.263  50.615
41995W        W33919  46.213  16.241  50.584
41996W        W33920   2.768  19.746  51.062
41997W        W33921   5.754  11.780  51.053
41998W        W33922  48.175  43.713  49.707
41999W        W33923   3.748  41.197  51.068
42000W        W33924  41.216  32.707  53.804
42001W        W33925  10.738  27.216  53.335
42002W        W33926  15.232  43.226  51.059
42003W        W33927   9.263  40.718  53.800
42004W        W33928   5.765   8.265  53.804
42005W        W33929  24.211  25.241  51.066
42006W        W33930  41.208  45.722  52.435
42007W        W33931   3.292  10.756  52.421
42008W        W33932  22.732   1.789  51.957
42009W        W33933  26.713  41.227  53.774
42010W        W33934  36.236  15.242  51.513
42011W        W33935  39.693  37.718  50.164
42012W        W33936  36.717   8.768  51.064
42013W        W33937   3.261  47.687  53.354
42014W        W33938   6.241  31.234  53.775
42015W        W33939   2.294  36.212  53.336
42016W        W33940  34.697  22.733  51.506
42017W        W33941  36.739  39.190  50.162
42018W        W33942  46.688  37.711  51.518
42019W        W33943   1.292   1.266  52.890
42020W        W33944   2.262  20.266  49.695
42021W        W33945  19.750  17.744  50.612
42022W        W33946   1.749  17.229  52.432
42023W        W33947  20.224  47.709  52.874
42024W        W33948  42.199   2.278  52.868
42025W        W33949  35.234  16.749  53.796
42026W        W33950  36.705  44.195  52.444
42027W        W33951  33.208  40.710  50.602
42028W        W33952  18.743  40.724  51.977
42029W        W33953  28.205  17.733  50.145
42030W        W33954  30.226   1.285  50.617
42031W        W33955  12.257  18.258  51.991
42032W        W33956  11.244  14.239  52.434
42033W        W33957  44.189  28.707  50.155
42034W        W33958   6.280  45.225  51.964
42035W        W33959   7.772  20.759  53.801
42036W        W33960  12.278  35.236  51.067
42037W        W33961  15.750  19.726  53.799
42038W        W33962  46.715  21.715  53.349
42039W        W33963  18.727  21.262  50.136
42040W        W33964  29.708  40.214  49.666
42041W        W33965  14.268  41.724  50.145
42042W        W33966  38.709   3.263  52.412
42043W        W33967  31.698  27.224  51.034
42044W        W33968  46.698   0.272  52.443
42045W        W33969  17.232   8.268  51.982
42046W        W33970   7.749   1.778  51.058
42047W        W33971  46.197  37.203  53.790
42048W        W33972  30.740  46.721  50.596
42049W        W33973  20.717  32.210  51.966
42050W        W33974  22.729  41.707  49.699
42051W        W33975  18.239   3.258  51.947
42052W        W33976  16.736   3.790  49.677
42053W        W33977   0.299  25.250  52.886
42054W        W33978  25.238  39.209  51.961
42055W        W33979  42.197  25.744  51.528
42056W        W33980  18.729  32.713  51.987
42057W        W33981   1.769   7.786  51.074
42058W        W33982   7.278  46.214  51.078
42059W        W33983  35.725  13.278  51.952
42060W        W33984  21.260  36.237  53.339
42061W        W33985  32.710   5.776  52.884
42062W        W33986  41.219  37.731  51.969
42063W        W33987  29.742  44.697  53.327
42064W        W33988  23.236  25.225  53.347
42065W        W33989  18.221  18.265  51.534
42066W        W33990  11.243  14.256  53.788
42067W        W33991  40.191   5.271  51.061
42068W        W33992  32.742  15.248  51.982
42069W        W33993  22.257  22.729  52.894
42070W        W33994  45.715   5.787  51.974
42071W        W33995  32.698  14.269  53.321
42072W        W33996  36.699  39.715  51.535
42073W        W33997  45.711   2.257  51.037
42074W        W33998  47.685  20.732  49.709
42075W        W33999  38.687   0.275  51.037
42076W        W34000  17.757  27.725  52.884
42077W        W34001  43.188  20.734  52.864
42078W        W34002  24.746  28.232  51.508
42079W        W34003   2.758  26.245  51.983
42080W        W34004  42.690   2.284  53.320
42081W        W34005  13.773   0.761  50.603
42082W        W34006  45.678  34.738  52.436
42083W        W34007  12.259   4.759  52.897
42084W        W34008  13.229  10.760  52.435
42085W        W34009   4.761   9.783  52.411
42086W        W34010   1.776   6.775  51.991
42087W        W34011  32.234  28.208  51.980
42088W        W34012  13.263  39.194  50.612
42089W        W34013  30.713  43.679  52.429
42090W        W34014  30.738  48.208  52.433
42091W        W34015   0.294  28.238  51.953
42092W        W34016  25.212  13.273  51.971
42093W        W34017  39.688  37.235  51.498
42094W        W34018  17.224  39.706  52.440
42095W        W34019  47.175  42.207  51.980
42096W        W34020  22.745  47.673  49.681
42097W        W34021  23.754  37.714  52.447
42098W        W34022  13.757   1.278  50.157
42099W        W34023  29.217  47.681  51.990
42100W        W34024  40.729  40.220  50.124
42101W        W34025   6.768  42.183  51.982
42102W        W34026  48.176  27.225  52.437
42103W        W34027  18.734   8.750  52.405
42104W        W34028  21.225  41.183  53.814
42105W        W34029  31.746  26.233  53.330
42106W        W34030   1.291  31.200  51.961
42107W        W34031   7.782  32.243  53.779
42108W        W34032  39.696   2.770  51.048
42109W        W34033  15.768  10.764  51.497
42110W        W34034  30.738  27.723  53.322
42111W        W34035  25.733  43.217  52.432
42112W        W34036  13.777   7.244  53.808
42113W        W34037  32.697  21.264  50.157
42114W        W34038  19.749   4.277  53.777
42115W        W34039  18.234   0.774  51.034
42116W        W34040  45.721  22.249  50.165
42117W        W34041   7.284  22.236  53.352
42118W        W34042  34.229  18.225  53.328
42119W        W34043   2.768   5.771  51.953
42120W        W34044   0.773  47.194  53.355
42121W        W34045  12.749  36.212  50.143
42122W        W34046  25.730  47.696  50.588
42123W        W34047  11.743   1.268  51.970
42124W        W34048  33.214  40.191  50.619
42125W        W34049   9.280  42.223  50.587
42126W        W34050  29.738  31.203  51.501
42127W        W34051  25.715  29.711  53.338
42128W        W34052  31.710   2.776  50.157
42129W        W34053  26.214  32.741  51.955
42130W        W34054  43.680  12.265  51.979
42131W        W34055  35.204   8.284  51.493
42132W        W34056   2.248  46.705  53.808
42133W        W34057  27.707  14.733  49.685
42134W        W34058   0.756  25.745  51.526
42135W        W34059   2.782   9.750  53.353
42136W        W34060  15.772  46.199  50.582
42137W        W34061   2.775  33.729  51.043
42138W        W34062  14.729  19.718  52.420
42139W        W34063  38.731   0.768  51.981
42140W        W34064  36.695  32.710  50.153
42141W        W34065  44.708  36.215  51.955
42142W        W34066  32.740  31.718  50.128
42143W        W34067  28.223   1.260  53.334
42144W        W34068  34.714  24.730  52.895
42145W        W34069   4.272  38.710  50.126
42146W        W34070   7.238  32.213  49.674
42147W        W34071  23.727  23.743  51.969
42148W        W34072   8.274  25.722  49.707
42149W        W34073  28.742  15.744  52.421
42150W        W34074   0.280   3.765  50.158
42151W        W34075  40.687  31.222  53.815
42152W        W34076   3.782  22.728  53.318
42153W        W34077  20.226   0.762  53.800
42154W        W34078  19.238   4.746  50.149
42155W        W34079  22.242  47.200  51.065
42156W        W34080  32.721  25.716  51.070
42157W        W34081   1.277  10.266  50.147
42158W        W34082  40.208   3.756  51.034
42159W        W34083   8.263  35.706  49.677
42160W        W34084  19.255  28.210  51.969
42161W        W34085  35.728   2.260  50.134
42162W        W34086   4.778  11.251  52.437
42163W        W34087  13.749  48.187  53.348
42164W        W34088  29.246  21.248  50.126
42165W        W34089  21.731   7.753  52.417
42166W        W34090  11.260   9.254  52.861
42167W        W34091  27.224  24.730  51.062
42168W        W34092  11.738  30.746  52.864
42169W        W34093  32.209   1.757  53.801
42170W        W34094  43.688  39.202  50.165
42171W        W34095  32.721   3.257  52.873
42172W        W34096   1.264  21.720  51.960
42173W        W34097  27.248  11.779  53.337
42174W        W34098   9.268  14.256  51.054
42175W        W34099   5.291   5.788  50.604
42176W        W34100   1.254  34.222  51.503
42177W        W34101   4.756  25.253  51.075
42178W        W34102  45.210   6.260  50.143
42179W        W34103  47.175  25.724  52.430
42180W        W34104  44.721   7.785  51.499
42181W        W34105  45.696   3.793  51.977
42182W        W34106  35.706  13.737  53.813
42183W        W34107  47.195  46.195  51.965
42184W        W34108  21.236  17.728  52.878
42185W        W34109  28.220   5.762  51.980
42186W        W34110  31.233  36.196  50.593
42187W        W34111  35.202  37.238  51.961
42188W        W34112  34.699   3.750  52.899
42189W        W34113  39.688   1.291  51.518
42190W        W34114  22.242  33.212  49.679
42191W        W34115  45.192  43.200  51.947
42192W        W34116   0.256  38.217  50.619
42193W        W34117  19.761  34.232  51.972
42194W        W34118  20.737  39.220  52.876
42195W        W34119  14.757   8.260  52.411
42196W        W34120  10.240  21.222  49.692
42197W        W34121   6.267  45.713  50.129
42198W        W34122   6.284  15.230  51.040
42199W        W34123  32.244  34.742  52.438
42200W        W34124  45.180  19.264  51.502
42201W        W34125  11.252   1.753  53.776
42202W        W34126  40.726  32.746  53.809
42203W        W34127  44.204  11.772  52.874
42204W        W34128  13.760  40.718  49.700
42205W        W34129  44.196   1.782  53.324
42206W        W34130  15.253   4.261  52.870
42207W        W34131  33.204  39.196  52.861
42208W        W34132  11.748  19.258  53.806
42209W        W34133  27.248  37.709  51.041
42210W        W34134   2.284  18.224  51.497
42211W        W34135  13.249  46.207  53.803
42212W        W34136  39.215  40.694  49.710
42213W        W34137  44.708  48.216  53.780
42214W        W34138  48.208  36.220  53.790
42215W        W34139  28.240  29.724  50.577
42216W        W34140  39.221  20.239  53.797
42217W        W34141  40.233  33.243  53.801
42218W        W34142  23.238  33.214  52.895
42219W        W34143  29.233  22.761  49.701
42220W        W34144  27.721   6.281  51.045
42221W        W34145  30.738   6.761  53.804
42222W        W34146   3.782  15.251  51.059
42223W        W34147  34.707  10.241  53.343
42224W        W34148  11.733  15.246  51.048
42225W        W34149  20.760  43.219  52.441
42226W        W34150  11.235  32.227  50.132
42227W        W34151  34.735   9.249  51.535
42228W        W34152  43.689  30.743  52.420
42229W        W34153  40.202   5.284  52.408
42230W        W34154   0.770  25.729  52.430
42231W        W34155  35.710  25.736  51.078
42232W        W34156  47.695  18.257  52.421
42233W        W34157   2.286  15.744  51.522
42234W        W34158  28.703  22.228  49.694
42235W        W34159  19.257   4.778  53.803
42236W        W34160  44.197  33.221  53.811
42237W        W34161  33.229  15.265  51.035
42238W        W34162  40.729  32.201  51.515
42239W        W34163  44.201  44.723  49.681
42240W        W34164  36.737  44.197  51.990
42241W        W34165   4.254  42.727  52.862
42242W        W34166  39.733  46.223  52.884
42243W        W34167  32.198   8.746  52.408
42244W        W34168  17.767  31.725  53.816
42245W        W34169  27.739  21.220  53.806
42246W        W34170  39.685  18.248  53.812
42247W        W34171  12.252   7.747  53.772
42248W        W34172   2.251   6.785  51.971
42249W        W34173  41.207  22.737  52.898
42250W        W34174  16.760  25.247  52.867
42251W        W34175  37.218  45.210  53.798
42252W        W34176   8.249  45.212  49.689
42253W        W34177  27.244  23.239  52.883
42254W        W34178  46.709  13.236  51.950
42255W        W34179  24.731  30.722  51.075
42256W        W34180   6.273  19.725  51.521
42257W        W34181   3.250  43.184  51.517
42258W        W34182  10.781   2.779  51.519
42259W        W34183  21.719   6.741  51.990
42260W        W34184  41.220  31.711  50.128
42261W        W34185  18.763   3.791  53.348
42262W        W34186  47.219  13.743  49.703
42263W        W34187  26.219  21.218  53.333
42264W        W34188   4.266  47.182  51.949
42265W        W34189  34.235  31.238  53.348
42266W        W34190  11.241   9.780  51.958
42267W        W34191   9.277  16.273  51.977
42268W        W34192   1.292  24.718  50.122
42269W        W34193  29.207   8.746  52.867
42270W        W34194  16.236  35.732  52.873
42271W        W34195  13.251  31.742  51.990
42272W        W34196  46.701  20.743  53.792
42273W        W34197  26.211   6.779  53.327
42274W        W34198   0.289  43.698  50.144
42275W        W34199  29.212  41.694  51.070
42276W        W34200  35.707  37.210  50.618
42277W        W34201  24.221  46.210  50.608
42278W        W34202  40.683  27.213  51.987
42279W        W34203  43.722  15.773  52.904
42280W        W34204  37.202  16.248  52.872
42281W        W34205  39.710   1.280  53.346
42282W        W34206  42.686  28.228  51.974
42283W        W34207  18.725  41.695  49.691
42284W        W34208  17.267   4.769  50.583
42285W        W34209  28.213   2.287  51.060
42286W        W34210   2.752  32.746  51.953
42287W        W34211  15.247  18.237  50.587
42288W        W34212  27.251   7.738  50.163
42289W        W34213  38.722   4.756  53.786
42290W        W34214  22.735  15.743  51.989
42291W        W34215  46.692  23.213  50.139
42292W        W34216  31.241  13.777  51.533
42293W        W34217  27.216  37.723  52.879
42294W        W34218  43.193  18.724  51.524
42295W        W34219  44.682  43.220  50.151
42296W        W34220  35.215  35.697  49.695
42297W        W34221  11.254  24.222  52.443
42298W        W34222  34.704  32.224  51.060
42299W        W34223  13.247  14.743  51.957
42300W        W34224   0.265  25.715  52.443
42301W        W34225  33.196  47.186  51.530
42302W        W34226  30.205  47.682  51.076
42303W        W34227  47.222  27.750  50.609
42304W        W34228  46.708  36.201  50.606
42305W        W34229  23.725  32.707  52.415
42306W        W34230  14.735  47.215  53.789
42307W        W34231   8.738  15.235  53.360
42308W        W34232  15.238  46.717  51.523
42309W        W34233  12.265   1.256  51.495
42310W        W34234  35.699  48.171  50.608
42311W        W34235   6.245  32.226  51.075
42312W        W34236   2.748  26.735  49.710
42313W        W34237   9.777  15.242  53.324
42314W        W34238  28.731  26.219  51.977
42315W        W34239   1.785  18.759  51.992
42316W        W34240  22.720  20.253  52.424
42317W        W34241  43.701   4.244  51.954
42318W        W34242  17.268  16.751  53.318
42319W        W34243  48.173  25.727  52.412
42320W        W34244  12.278  48.204  53.321
42321W        W34245  19.735  13.765  50.160
42322W        W34246  44.185  38.698  53.808
42323W        W34247   7.255  44.702  53.342
42324W        W34248  18.255  27.211  51.058
42325W        W34249  36.735   5.786  51.533
42326W        W34250  16.747   3.758  53.322
42327W        W34251  44.682  45.691  51.521
42328W        W34252  22.755  39.726  51.976
42329W        W34253  17.261  32.734  53.817
42330W        W34254  38.199  42.192  50.158
42331W        W34255  23.228  39.732  49.666
42332W        W34256  26.725  15.724  52.427
42333W        W34257  37.235   2.766  50.135
42334W        W34258  11.761  45.694  52.877
42335W        W34259   7.752  11.252  51.504
42336W        W34260  41.711  42.720  51.493
42337W        W34261  21.249  28.249  53.780
42338W        W34262  25.742  11.772  52.405
42339W        W34263   0.253  25.733  50.155
42340W        W34264  11.263  39.724  51.499
42341W        W34265  18.760  37.220  51.957
42342W        W34266  39.190  33.242  52.902
42343W        W34267   3.294  15.772  50.612
42344W        W34268  25.230   8.781  51.968
42345W        W34269  46.695   2.781  52.407
42346W        W34270  18.255  27.746  52.411
42347W        W34271  22.745  48.179  51.492
42348W        W34272  33.219  32.226  50.612
42349W        W34273  18.238   4.273  50.135
42350W        W34274  19.252  36.717  53.338
42351W        W34275  38.692  41.722  50.578
42352W        W34276  44.200  14.258  49.689
42353W        W34277  21.248   1.785  53.332
42354W        W34278  48.186  15.265  53.324
42355W        W34279  45.181  46.204  49.682
42356W        W34280  30.717  22.240  50.155
42357W        W34281   4.260  32.205  51.502
42358W        W34282  32.744  17.764  49.680
42359W        W34283  16.745  18.233  52.864
42360W        W34284   6.287  26.235  51.054
42361W        W34285  12.233  43.710  53.788
42362W        W34286  22.214  23.250  53.318
42363W        W34287   6.740  37.227  51.053
42364W        W34288   0.290  12.739  50.129
42365W        W34289  15.230  17.243  53.775
42366W        W34290  23.723   4.777  50.591
42367W        W34291  35.223   1.767  52.421
42368W        W34292   1.795  37.717  51.991
42369W        W34293  26.755  42.715  52.860
42370W        W34294  34.203  26.220  51.500
42371W        W34295  11.254  45.710  51.522
42372W        W34296  43.181  12.234  50.604
42373W        W34297  45.719  11.753  53.334
42374W        W34298  42.228  14.260  51.947
42375W        W34299   0.776  28.729  50.579
42376W        W34300  19.235  25.219  53.789
42377W        W34301  41.709  34.739  51.525
42378W        W34302   0.271  11.758  51.973
42379W        W34303  26.227  12.273  52.407
42380W        W34304  16.766  46.181  50.140
42381W        W34305  35.726  44.718  53.788
42382W        W34306  24.229  23.254  53.352
42383W        W34307  32.745  23.220  49.704
42384W        W34308  23.730  38.702  51.065
42385W        W34309  27.226   5.744  51.077
42386W        W34310  41.216   1.750  53.342
42387W        W34311  21.259   0.267  52.404
42388W        W34312  21.227  25.224  50.131
42389W        W34313   8.258  35.197  52.442
42390W        W34314  39.708   2.268  53.778
42391W        W34315  40.216  13.771  51.062
42392W        W34316  21.241  29.725  51.073
42393W        W34317   0.263  40.202  50.133
42394W        W34318   6.785   8.756  50.145
42395W        W34319   8.285  47.684  51.496
42396W        W34320   6.772  27.714  50.146
42397W        W34321  24.223   8.779  51.976
42398W        W34322  12.266   6.251  53.776
42399W        W34323  15.746  27.228  52.860
42400W        W34324  13.250  19.719  50.620
42401W        W34325   5.278  38.200  52.896
42402W        W34326  38.223   0.751  49.692
42403W        W34327  18.241  47.718  51.520
42404W        W34328  13.738   6.271  51.037
42405W        W34329   3.748  34.739  49.667
42406W        W34330   9.236  35.693  51.044
42407W        W34331   6.247   9.248  51.957
42408W        W34332  26.240  11.238  51.494
42409W        W34333  14.760  17.239  52.407
42410W        W34334  21.719  41.206  52.425
42411W        W34335  47.192  16.256  49.699
42412W        W34336   3.758  37.730  52.405
42413W        W34337  26.737  43.685  52.435
42414W        W34338   2.275  29.205  52.880
42415W        W34339  22.729  31.710  53.354
42416W        W34340  39.209   7.747  51.042
42417W        W34341  21.759  10.781  49.664
42418W        W34342  11.779   7.249  52.878
42419W        W34343  17.741  12.761  53.778
42420W        W34344  30.707  13.276  53.357
42421W        W34345  38.704  11.777  50.581
42422W        W34346   4.749  21.720  49.696
42423W        W34347  39.708  14.247  52.444
42424W        W34348   6.269  31.746  51.534
42425W        W34349  25.233  33.230  53.349
42426W        W34350  31.247   2.792  53.781
42427W        W34351   0.250  30.208  52.900
42428W        W34352   0.796  46.180  53.805
42429W        W34353  45.188  43.720  52.905
42430W        W34354   3.252  16.251  51.964
42431W        W34355   9.746  18.751  53.781
42432W        W34356   1.285   1.770  51.495
42433W        W34357   6.245  35.724  51.048
42434W        W34358   2.792  45.716  49.693
42435W        W34359  41.710  35.698  51.504
42436W        W34360  29.232  38.699  53.333
42437W        W34361  44.196  19.748  51.059
42438W        W34362  32.204  22.761  52.412
42439W        W34363  27.214   3.749  53.353
42440W        W34364   8.265   5.788  53.331
42441W        W34365  19.252  17.228  50.597
42442W        W34366  37.701   5.779  53.361
42443W        W34367   0.257  37.212  51.979
42444W        W34368  32.237  24.732  52.414
42445W        W34369   5.290   5.780  50.124
42446W        W34370   1.259  43.717  52.862
42447W        W34371  15.249  19.753  50.154
42448W        W34372   0.780   9.768  52.887
42449W        W34373  25.220  44.179  51.519
42450W        W34374  19.757   4.771  49.682
42451W        W34375   1.760  43.712  50.593
42452W        W34376  19.238  43.681  53.811
42453W        W34377  33.744  38.729  51.073
42454W        W34378   9.744  14.751  51.040
42455W        W34379  11.244  31.746  53.323
42456W        W34380  30.725  22.738  50.122
42457W        W34381   1.772   6.759  50.154
42458W        W34382   6.244  47.174  53.337
42459W        W34383  30.710  15.738  50.606
42460W        W34384  10.738  40.213  51.990
42461W        W34385  47.217   0.288  53.810
42462W        W34386  26.215  15.738  51.953
42463W        W34387  22.251  45.224  51.983
42464W        W34388  40.688   3.770  52.865
42465W        W34389  24.744   4.787  53.361
42466W        W34390   4.281  46.216  52.886
42467W        W34391  45.695  26.240  50.136
42468W        W34392   1.791  27.206  51.060
42469W        W34393  14.732  18.768  50.604
42470W        W34394  19.739  28.232  50.615
42471W        W34395  27.217   6.761  53.778
42472W        W34396  47.672  48.191  52.859
42473W        W34397   4.758   6.289  51.961
42474W        W34398   8.785  32.230  50.141
42475W        W34399  23.234   1.790  52.429
42476W        W34400   9.265  31.247  53.808
42477W        W34401  38.204  47.695  50.129
42478W        W34402   2.276  30.735  51.989
42479W        W34403  16.227   3.277  52.423
42480W        W34404  21.215  33.211  52.887
42481W        W34405  39.704  34.699  51.035
42482W        W34406   6.745   7.768  53.800
42483W        W34407  12.764   3.280  53.348
42484W        W34408  30.238  33.716  51.968
42485W        W34409  27.714  47.222  53.803
42486W        W34410  26.722  22.733  50.163
42487W        W34411   2.269   5.263  50.617
42488W        W34412  18.735   1.790  51.534
42489W        W34413  26.724   9.257  53.777
42490W        W34414  12.269  34.227  49.686
42491W        W34415  14.745  14.773  50.586
42492W        W34416  25.254  47.697  51.496
42493W        W34417  39.689   1.254  51.949
42494W        W34418  11.777   0.788  52.426
42495W        W34419  28.730  19.755  50.592
42496W        W34420  15.740   8.267  52.863
42497W        W34421  17.232  20.257  51.061
42498W        W34422  42.700  24.212  51.527
42499W        W34423  48.191  44.198  50.584
42500W        W34424  14.266   2.272  51.524
42501W        W34425  23.727  27.217  53.778
42502W        W34426  26.237  35.723  50.598
42503W        W34427  33.717  35.711  51.532
42504W        W34428   9.753  35.696  51.503
42505W        W34429  27.247  39.686  53.809
42506W        W34430  23.730  40.216  53.328
42507W        W34431  45.180  23.229  53.358
42508W        W34432  23.745  13.250  53.813
42509W        W34433  20.235  15.234  51.991
42510W        W34434  38.708  12.771  53.331
42511W        W34435  40.200  42.183  50.141
42512W        W34436  30.740  12.755  51.063
42513W        W34437  19.229  30.240  50.593
42514W        W34438   9.751   7.241  52.864
42515W        W34439  26.753  26.247  51.521
42516W        W34440  20.257  46.175  49.698
42517W        W34441  21.249  19.749  53.356
42518W        W34442  43.699  21.717  50.607
42519W        W34443  21.735   2.255  53.795
42520W        W34444  30.704  35.231  52.859
42521W        W34445  32.742   9.778  51.961
42522W        W34446  40.233  23.233  52.424
42523W        W34447  11.278  42.181  53.794
42524W        W34448  14.272   1.757  51.948
42525W        W34449  25.220  46.687  51.961
42526W        W34450  28.207  27.749  49.671
42527W        W34451  11.746  10.235  52.881
42528W        W34452  17.256  22.733  50.606
42529W        W34453  42.715   8.276  50.124
42530W        W34454  26.744  25.748  53.345
42531W        W34455  16.767  28.746  50.155
42532W        W34456  31.211  29.727  50.592
42533W        W34457  22.713   4.256  52.429
42534W        W34458   5.271  30.221  53.779
42535W        W34459  14.749  46.716  50.591
42536W        W34460  46.699  44.703  50.606
42537W        W34461  39.221  29.731  53.331
42538W        W34462  37.729  48.182  53.788
42539W        W34463  33.740   7.743  51.987
42540W        W34464  12.759  36.710  53.777
42541W        W34465   6.243  20.761  52.420
42542W        W34466  26.724   4.284  50.606
42543W        W34467   8.760   7.783  51.969
42544W        W34468  18.741  17.723  50.151
42545W        W34469   9.270   1.770  52.870
42546W        W34470  21.220  19.237  52.419
42547W        W34471  40.228  39.187  53.323
42548W        W34472   8.248   3.793  52.415
42549W        W34473  29.750  24.223  52.863
42550W        W34474   8.270  47.180  50.617
42551W        W34475  14.729  33.716  53.789
42552W        W34476  35.720  18.748  52.440
42553W        W34477  32.199  32.212  51.519
42554W        W34478  34.242  33.738  52.437
42555W        W34479  16.230   5.750  52.448
42556W        W34480  25.732  23.737  53.353
42557W        W34481  38.215  37.733  51.034
42558W        W34482  33.718  12.255  51.531
42559W        W34483  10.246   1.791  51.036
42560W        W34484  14.239  32.717  52.881
42561W        W34485  37.203   5.751  53.774
42562W        W34486   9.760  12.767  51.048
42563W        W34487   4.754  29.719  53.815
42564W        W34488  20.219  39.708  50.584
42565W        W34489  36.695   2.777  50.621
42566W        W34490  40.222   1.790  52.423
42567W        W34491  26.245  32.710  50.165
42568W        W34492  25.751   4.265  50.139
42569W        W34493  28.246  46.702  51.525
42570W        W34494   4.255  10.735  52.862
42571W        W34495  33.739  12.776  52.406
42572W        W34496  26.739  15.260  51.075
42573W        W34497  40.221  38.713  50.590
42574W        W34498  28.725  42.214  52.418
42575W        W34499  45.217  17.728  49.695
42576W        W34500   8.770  28.724  52.863
42577W        W34501  48.220  11.254  49.685
42578W        W34502  46.686  22.256  50.596
42579W        W34503  43.208   6.784  50.130
42580W        W34504  39.722  38.191  50.601
42581W        W34505  34.243  16.223  53.788
42582W        W34506  47.708  26.231  52.880
42583W        W34507  40.198  13.237  51.952
42584W        W34508  22.242   4.288  51.951
42585W        W34509  14.738  19.262  52.879
42586W        W34510   0.785  24.228  50.132
42587W        W34511  43.227  41.718  51.059
42588W        W34512  29.251   9.281  52.432
42589W        W34513  21.730   2.274  50.581
42590W        W34514  14.264  14.763  50.166
42591W        W34515  40.187  48.196  49.703
42592W        W34516  42.217  38.189  53.355
42593W        W34517  30.204  19.723  51.046
42594W        W34518  45.721  17.268  53.331
42595W        W34519  43.705   2.257  51.976
42596W        W34520  19.730  29.231  51.987
42597W        W34521  18.751  41.694  50.130
42598W        W34522  30.713  17.745  53.775
42599W        W34523  43.716   7.244  53.775
42600W        W34524  22.218  27.749  50.602
42601W        W34525  30.208  34.207  52.447
42602W        W34526  37.713   2.250  53.316
42603W        W34527   8.738  46.223  50.593
42604W        W34528  41.226  16.738  51.511
42605W        W34529  23.737  32.206  51.520
42606W        W34530  15.265  37.224  51.054
42607W        W34531  12.274  26.234  49.703
42608W        W34532  15.732   1.293  51.039
42609W        W34533  10.742  39.690  50.604
42610W        W34534  24.720   6.753  50.617
42611W        W34535  13.264  27.748  52.418
42612W        W34536  48.174  42.681  53.804
42613W        W34537  12.765   4.751  49.682
42614W        W34538   2.252  18.232  52.901
42615W        W34539   2.788  47.698  51.987
42616W        W34540  45.696  47.676  53.817
42617W        W34541   4.760  44.180  51.954
42618W        W34542  24.237  27.715  51.961
42619W        W34543  35.198  14.760  53.776
42620W        W34544  20.266   0.292  51.078
42621W        W34545  47.207   6.768  53.812
42622W        W34546  36.692  27.712  53.351
42623W        W34547  48.180  36.709  52.438
42624W        W34548  10.753  29.203  51.036
42625W        W34549  34.212  12.262  51.966
42626W        W34550  42.210  33.733  49.671
42627W        W34551  26.731  35.740  50.583
42628W        W34552  47.708  22.716  53.330
42629W        W34553  38.235  27.706  52.874
42630W        W34554  10.250  13.752  52.433
42631W        W34555  45.705  24.725  52.892
42632W        W34556  32.712  17.222  51.975
42633W        W34557  36.217  31.740  50.584
42634W        W34558  20.251  37.215  53.321
42635W        W34559  19.722   9.747  53.803
42636W        W34560  29.226  45.199  51.959
42637W        W34561  28.731   1.747  50.583
42638W        W34562  40.185  31.728  50.141
42639W        W34563  39.709  12.778  51.048
42640W        W34564  37.222  25.235  50.163
42641W        W34565   2.789  46.193  51.971
42642W        W34566  25.245  41.699  52.873
42643W        W34567  39.192  10.240  52.899
42644W        W34568   0.283  13.741  52.441
42645W        W34569  17.737  24.714  50.583
42646W        W34570  20.262   1.289  50.137
42647W        W34571   1.261   2.259  51.077
42648W        W34572  37.712  20.723  51.044
42649W        W34573   5.264  17.750  53.354
42650W        W34574  41.184  36.236  51.520
42651W        W34575   9.271  31.232  52.866
42652W        W34576  35.738  28.238  53.323
42653W        W34577  23.757  29.726  51.072
42654W        W34578  15.261  24.228  50.589
42655W        W34579  15.235   9.243  50.579
42656W        W34580  13.732  27.754  52.441
42657W        W34581  35.234  44.680  52.888
42658W        W34582   6.281  45.714  49.700
42659W        W34583  45.217   0.757  50.155
42660W        W34584  15.258  14.755  50.617
42661W        W34585  38.214  15.759  52.430
42662W        W34586  23.241   1.288  50.590
42663W        W34587  40.195  28.708  50.121
42664W        W34588  30.249   4.272  51.054
42665W        W34589  10.771  25.740  51.070
42666W        W34590  32.219  13.276  50.152
42667W        W34591  28.714  24.726  52.887
42668W        W34592  13.756   9.740  52.436
42669W        W34593  27.705   8.250  51.509
42670W        W34594  22.232  27.744  51.042
42671W        W34595   9.766  39.199  51.949
42672W        W34596  10.753  27.710  52.877
42673W        W34597  42.202  20.727  51.981
42674W        W34598  37.728  41.704  52.883
42675W        W34599  28.252  31.747  52.899
42676W        W34600  31.740  19.724  52.900
42677W        W34601   8.781  37.735  52.404
42678W        W34602  31.730  16.229  53.786
42679W        W34603  34.737  21.243  51.056
42680W        W34604  24.255  34.209  53.332
42681W        W34605  22.732   2.759  51.974
42682W        W34606  14.766  27.743  53.800
42683W        W34607  23.233  11.753  52.861
42684W        W34608  30.241  42.207  51.037
42685W        W34609  22.230  41.721  49.708
42686W        W34610  17.757   5.253  50.162
42687W        W34611   8.769  16.746  53.333
42688W        W34612  41.195   1.795  50.124
42689W        W34613  27.730   1.752  53.354
42690W        W34614  31.221   3.778  51.052
42691W        W34615  38.721  18.747  53.328
42692W        W34616  21.228   5.258  53.351
42693W        W34617  16.268  20.241  50.145
42694W        W34618  28.718  18.756  53.817
42695W        W34619  31.232  20.738  50.608
42696W        W34620  18.757  34.240  51.055
42697W        W34621  16.732  41.684  49.690
42698W        W34622  37.235  28.242  51.504
42699W        W34623  11.268  28.714  52.415
42700W        W34624  20.235  18.269  53.778
42701W        W34625  13.274  39.724  51.976
42702W        W34626  42.680  14.246  50.622
42703W        W34627  10.270   7.740  50.616
42704W        W34628   1.785  44.703  51.036
42705W        W34629  33.243   8.243  51.976
42706W        W34630  19.767  43.716  53.775
42707W        W34631  42.228  19.726  50.156
42708W        W34632  43.196   8.238  49.687
42709W        W34633  19.228  46.188  51.989
42710W        W34634  48.194  40.728  50.578
42711W        W34635  24.255  35.224  50.619
42712W        W34636  15.273  40.218  49.675
42713W        W34637  46.198  48.195  50.616
42714W        W34638  39.694  33.205  51.061
42715W        W34639  14.758  25.730  49.673
42716W        W34640   8.750  14.263  52.439
42717W        W34641  22.732  12.731  53.794
42718W        W34642  20.726  11.754  52.431
42719W        W34643   2.782  28.247  50.138
42720W        W34644  18.735  28.204  50.599
42721W        W34645   7.286  24.243  50.598
42722W        W34646   7.783   6.758  51.525
42723W        W34647  18.252  30.729  51.526
42724W        W34648  19.247   6.779  52.900
42725W        W34649  35.702  14.751  52.903
42726W        W34650  37.711  24.221  49.676
42727W        W34651  29.236  33.741  51.970
42728W        W34652  25.722  48.192  53.343
42729W        W34653  38.725  12.775  51.504
42730W        W34654  46.688  20.722  52.883
42731W        W34655  46.211  35.215  49.677
42732W        W34656  38.230  11.746  51.066
42733W        W34657  39.689  10.778  50.139
42734W        W34658   1.268  18.249  50.584
42735W        W34659   1.797  43.201  51.973
42736W        W34660   6.786  22.728  51.497
42737W        W34661  19.729  27.718  53.317
42738W        W34662  27.224  22.221  52.876
42739W        W34663  41.685  32.215  52.866
42740W        W34664   6.252  42.204  51.043
42741W        W34665  45.685  40.718  51.068
42742W        W34666  33.734  27.708  52.412
42743W        W34667  38.728  31.205  51.502
42744W        W34668  37.220  15.759  51.061
42745W        W34669  43.210   3.249  51.951
42746W        W34670  40.206  12.737  53.340
42747W        W34671  21.232  20.726  52.405
42748W        W34672  25.754   9.264  53.347
42749W        W34673  20.734  10.245  52.866
42750W        W34674   0.751  39.690  53.793
42751W        W34675  36.725  37.694  51.967
42752W        W34676  46.188  29.222  50.166
42753W        W34677  43.186  25.717  53.774
42754W        W34678  25.727  27.219  51.053
42755W        W34679  20.225  25.251  51.978
42756W        W34680  11.732  43.681  53.332
42757W        W34681  27.728  32.708  51.072
42758W        W34682  15.765  26.243  51.959
42759W        W34683  32.699  24.739  51.061
42760W        W34684  40.203  35.702  50.165
42761W        W34685  43.692  26.252  53.797
42762W        W34686  34.716  28.210  53.773
42763W        W34687   6.286  43.712  50.157
42764W        W34688  23.751  26.221  53.325
42765W        W34689  30.240  31.239  50.597
42766W        W34690  17.262  34.194  49.677
42767W        W34691  35.721  34.707  49.702
42768W        W34692  12.280  13.746  51.512
42769W        W34693  38.720  29.701  51.967
42770W        W34694  42.184  44.715  51.977
42771W        W34695  18.231  20.743  53.337
42772W        W34696  48.198  38.723  50.615
42773W        W34697   1.261  30.242  51.991
42774W        W34698  18.725  10.749  50.162
42775W        W34699   7.763   5.773  53.348
42776W        W34700   3.788  20.732  52.429
42777W        W34701  39.695  17.734  52.447
42778W        W34702   2.748  37.214  50.588
42779W        W34703  44.210   9.779  50.594
42780W        W34704   1.795  36.234  52.422
42781W        W34705  47.201  37.732  51.495
42782W        W34706   5.764  34.742  50.580
42783W        W34707  13.757  12.761  51.529
42784W        W34708  11.268  41.208  53.334
42785W        W34709  14.747  41.702  50.617
42786W        W34710   2.269   8.785  53.817
42787W        W34711  38.715  21.230  50.613
42788W        W34712  42.723   5.781  51.959
42789W        W34713  12.771  36.738  53.333
42790W        W34714  29.248  20.735  51.531
42791W        W34715  10.774  37.191  53.331
42792W        W34716   4.776   8.741  52.879
42793W        W34717  39.214   4.753  49.672
42794W        W34718   8.758  43.691  52.443
42795W        W34719  38.204  45.217  50.131
42796W        W34720  27.740  41.688  53.792
42797W        W34721  29.729   1.765  51.518
42798W        W34722  32.230  17.239  53.777
42799W        W34723  32.203  13.752  52.437
42800W        W34724  32.229  15.742  51.502
42801W        W34725  14.753  46.196  52.878
42802W        W34726  12.772  16.731  52.429
42803W        W34727   5.766  46.720  49.693
42804W        W34728  17.752  33.734  49.704
42805W        W34729  21.750  14.275  51.979
42806W        W34730  17.730  30.244  50.157
42807W        W34731  45.211  26.235  52.869
42808W        W34732  18.225  44.706  52.872
42809W        W34733  20.223  38.206  51.505
42810W        W34734  29.209  19.257  49.706
42811W        W34735   9.753  42.681  51.072
42812W        W34736  38.190  35.194  50.128
42813W        W34737  48.212  15.232  52.891
42814W        W34738  14.229  45.701  50.614
42815W        W34739   5.781  35.203  53.317
42816W        W34740   4.258  27.222  51.048
42817W        W34741  14.257  41.718  51.531
42818W        W34742  25.745   4.276  52.446
42819W        W34743  48.180   4.260  52.440
42820W        W34744   0.259  42.181  49.683
42821W        W34745  20.219  40.694  49.670
42822W        W34746   3.770  40.206  51.057
42823W        W34747  47.208  10.757  52.435
42824W        W34748  12.758  12.231  50.137
42825W        W34749  39.199  47.689  53.816
42826W        W34750  16.236   4.749  53.787
42827W        W34751  20.761  39.232  51.034
42828W        W34752  41.692  13.765  51.041
42829W        W34753  46.194  23.246  53.347
42830W        W34754  38.722  12.246  51.970
42831W        W34755  24.723  40.208  52.419
42832W        W34756  30.236   2.780  50.141
42833W        W34757  46.719  16.743  52.411
42834W        W34758  46.708  13.234  53.352
42835W        W34759  13.755  45.676  52.899
42836W        W34760  41.186  11.268  49.694
42837W        W34761  36.712  29.246  50.585
42838W        W34762  30.723  21.738  51.972
42839W        W34763   7.758  28.220  52.904
42840W        W34764   3.791  12.776  50.611
42841W        W34765  10.777  42.718  51.960
42842W        W34766  21.261  32.213  49.702
42843W        W34767  44.723  14.259  52.862
42844W        W34768  25.249  13.229  53.784
42845W        W34769   2.747  13.258  52.404
42846W        W34770  22.239  26.730  49.677
42847W        W34771  47.675  16.249  53.351
42848W        W34772  18.269  31.232  51.962
42849W        W34773  11.748  28.236  51.509
42850W        W34774   8.243  21.254  52.430
42851W        W34775  10.256  15.236  49.705
42852W        W34776   5.244  24.759  52.881
42853W        W34777  14.756  42.216  51.495
42854W        W34778  23.742  27.210  51.972
42855W        W34779  46.673  10.278  50.161
42856W        W34780  33.210   9.264  51.960
42857W        W34781   6.773  38.233  51.980
42858W        W34782  19.746   2.273  51.493
42859W        W34783  31.733  25.220  51.505
42860W        W34784   8.264   6.746  51.063
42861W        W34785  46.711   7.777  49.709
42862W        W34786  34.195  25.234  52.883
42863W        W34787  31.718  28.718  53.356
42864W        W34788   8.265  16.727  50.598
42865W        W34789   7.279  28.707  51.501
42866W        W34790   9.267  12.751  51.072
42867W        W34791  33.734  36.737  50.608
42868W        W34792  37.202   6.773  51.516
42869W        W34793  11.756  34.721  51.989
42870W        W34794  26.218  40.706  51.970
42871W        W34795  28.230  18.736  51.034
42872W        W34796   2.267  43.679  52.891
42873W        W34797  42.690  14.771  50.135
42874W        W34798  35.718  20.724  53.812
42875W        W34799  42.681  14.750  52.415
42876W        W34800  36.714   4.273  53.797
42877W        W34801  44.198  46.218  51.505
42878W        W34802  19.745  20.729  49.693
42879W        W34803  26.712  28.748  51.062
42880W        W34804  37.699   3.257  52.903
42881W        W34805   7.278  14.253  53.324
42882W        W34806  47.703  40.709  52.443
42883W        W34807  29.251  27.717  50.130
42884W        W34808   4.248  43.694  50.151
42885W        W34809  24.228  43.710  52.890
42886W        W34810  40.702  43.713  51.497
42887W        W34811  44.702  31.733  49.706
42888W        W34812  31.703   2.270  50.581
42889W        W34813   4.267   9.762  53.776
42890W        W34814   5.777   4.745  50.613
42891W        W34815  39.216   7.752  51.957
42892W        W34816  29.251  22.223  50.578
42893W        W34817  42.212  38.226  52.423
42894W        W34818   5.253  17.248  50.587
42895W        W34819  11.263  44.198  52.871
42896W        W34820   7.286  37.690  49.696
42897W        W34821  46.678  30.246  52.860
42898W        W34822  48.172  22.747  51.528
42899W        W34823   8.753  23.716  50.158
42900W        W34824   5.753   0.777  53.328
42901W        W34825   8.772  47.709  52.867
42902W        W34826  48.187  32.730  49.695
42903W        W34827  28.717  34.721  53.775
42904W        W34828  19.751  35.694  50.597
42905W        W34829  41.682  27.732  51.065
42906W        W34830   8.268   4.270  50.158
42907W        W34831   6.788   3.783  50.584
42908W        W34832  24.756  17.735  50.588
42909W        W34833  15.751  14.745  50.593
42910W        W34834  46.693  45.185  53.346
42911W        W34835   9.771  25.234  50.605
42912W        W34836  44.679  47.218  52.437
42913W        W34837  34.194  30.712  52.406
42914W        W34838   2.295   1.787  50.620
42915W        W34839  41.188  36.204  51.972
42916W        W34840   3.278  15.271  53.782
42917W        W34841  23.235   0.749  51.512
42918W        W34842  16.253   8.758  52.429
42919W        W34843  26.725  45.687  50.595
42920W        W34844  21.762  24.751  50.158
42921W        W34845  48.213  46.194  50.601
42922W        W34846  33.732   1.260  49.672
42923W        W34847  10.280  18.724  52.417
42924W        W34848   5.779   0.794  49.678
42925W        W34849  24.711  42.725  49.673
42926W        W34850  46.179  36.731  50.163
42927W        W34851  27.731  15.259  51.503
42928W        W34852   3.262  42.196  53.324
42929W        W34853  18.255  31.226  50.580
42930W        W34854   9.769   0.781  49.685
42931W        W34855  26.754  43.682  53.340
42932W        W34856  18.253  44.206  53.780
42933W        W34857   1.289  10.761  50.132
42934W        W34858  23.751  17.251  53.804
42935W        W34859   3.255  17.732  52.417
42936W        W34860  19.247   1.298  51.949
42937W        W34861  24.257   2.762  52.903
42938W        W34862   3.286  33.206  50.600
42939W        W34863  28.223  29.740  51.063
42940W        W34864   8.279  38.226  51.972
42941W        W34865  41.224  21.229  53.778
42942W        W34866   6.748  47.700  51.510
42943W        W34867  33.730  27.236  53.816
42944W        W34868  16.741  35.196  51.521
42945W        W34869  31.247   7.260  51.076
42946W        W34870  12.250  17.227  51.050
42947W        W34871  40.725  16.759  50.622
42948W        W34872  29.725  17.251  51.037
42949W        W34873  23.230   5.258  51.514
42950W        W34874   8.253  31.199  50.607
42951W        W34875  37.691  18.255  53.326
42952W        W34876  39.191  45.215  51.522
42953W        W34877  18.243   0.285  53.807
42954W        W34878  44.684  38.711  53.810
42955W        W34879  12.240  46.723  51.077
42956W        W34880  45.178  21.742  51.061
42957W        W34881  31.243   1.784  52.438
42958W        W34882  24.214  26.733  53.788
42959W        W34883  20.258  14.258  49.691
42960W        W34884  35.698  48.177  50.140
42961W        W34885  10.244  12.251  50.622
42962W        W34886   0.784  39.731  52.860
42963W        W34887  39.717  21.731  50.619
42964W        W34888  35.196  45.214  49.667
42965W        W34889  24.741  11.741  50.157
42966W        W34890  44.681  21.741  51.491
42967W        W34891  38.197  44.197  53.332
42968W        W34892  39.216   1.768  52.889
42969W        W34893  42.689   7.261  51.976
42970W        W34894  25.230   4.284  50.598
42971W        W34895  10.239  31.200  52.887
42972W        W34896  11.774  43.727  51.533
42973W        W34897  41.709  48.182  52.886
42974W        W34898  25.230   2.747  50.592
42975W        W34899  44.704  40.699  51.069
42976W        W34900  16.227   3.755  51.510
42977W        W34901  21.262  45.702  50.140
42978W        W34902   8.268  47.181  52.447
42979W        W34903   4.770  13.250  52.423
42980W        W34904  44.194  36.232  51.532
42981W        W34905  11.268   1.762  51.045
42982W        W34906  35.201  30.216  50.158
42983W        W34907  47.688  21.745  50.158
42984W        W34908  15.757  38.206  51.073
42985W        W34909  45.683  40.199  50.165
42986W        W34910  28.751  29.751  51.492
42987W        W34911  31.234  10.743  53.322
42988W        W34912  29.710  16.747  51.960
42989W        W34913  26.706  24.237  52.431
42990W        W34914  26.236  21.234  53.777
42991W        W34915  43.705  19.741  50.143
42992W        W34916   6.758  18.728  52.879
42993W        W34917   4.254  37.223  51.968
42994W        W34918  21.255  21.243  52.420
42995W        W34919  15.766  15.257  53.334
42996W        W34920  32.214   4.764  53.354
42997W        W34921  22.223  10.250  53.321
42998W        W34922  43.199   0.750  51.042
42999W        W34923  46.216  21.259  50.609
43000W        W34924  15.227  32.209  51.059
43001W        W34925  35.706  33.734  52.423
43002W        W34926  34.206   6.266  51.034
43003W        W34927   5.765   8.280  52.434
43004W        W34928   9.261  26.737  49.675
43005W        W34929  46.193  14.741  52.881
43006W        W34930  21.730  28.218  50.586
43007W        W34931  47.186  13.741  51.958
43008W        W34932  10.763  17.264  51.047
43009W        W34933   3.762  45.677  52.405
43010W        W34934   7.762  16.768  53.333
43011W        W34935   7.250  44.181  51.497
43012W        W34936   7.287  33.735  50.130
43013W        W34937   3.788  47.720  50.621
43014W        W34938  31.228  27.712  50.588
43015W        W34939   5.260  42.685  53.343
43016W        W34940  27.211  46.716  50.142
43017W        W34941  14.263  22.218  51.953
43018W        W34942   3.751   7.741  50.614
43019W        W34943  19.265   2.779  52.874
43020W        W34944  19.250  16.735  51.048
43021W        W34945  11.736  27.243  53.325
43022W        W34946  29.744  32.739  51.071
43023W        W34947  28.237   9.771  51.956
43024W        W34948  23.753  24.247  53.800
43025W        W34949  20.225  19.265  49.690
43026W        W34950  30.748  37.725  49.673
43027W        W34951  20.218  37.195  52.431
43028W        W34952   5.269  12.272  51.947
43029W        W34953  47.179  23.724  52.423
43030W        W34954  15.245  12.267  53.319
43031W        W34955  31.216   7.748  49.697
43032W        W34956  33.699  15.259  53.793
43033W        W34957  21.744  37.222  53.354
43034W        W34958  48.183  29.721  52.871
43035W        W34959   6.781   0.790  50.162
43036W        W34960  37.705  23.737  50.159
43037W        W34961  17.723  22.728  51.079
43038W        W34962  23.222  29.215  50.140
43039W        W34963  36.690  46.184  53.359
43040W        W34964  29.748   6.271  51.496
43041W        W34965  45.707  41.719  53.805
43042W        W34966   6.285  30.241  52.893
43043W        W34967  27.251  41.201  53.336
43044W        W34968  45.189   5.244  52.870
43045W        W34969  39.191  27.738  50.157
43046W        W34970  46.222  33.713  50.618
43047W        W34971  44.221  35.215  50.609
43048W        W34972  31.716  16.237  50.618
43049W        W34973  18.250  44.218  51.985
43050W        W34974   4.775  15.248  50.607
43051W        W34975  29.213  43.703  52.424
43052W        W34976  30.205  35.698  51.957
43053W        W34977   4.765  16.726  49.667
43054W        W34978  12.764  31.728  50.599
43055W        W34979  35.739  11.745  51.967
43056W        W34980   0.796  32.223  49.708
43057W        W34981  15.750   0.765  51.050
43058W        W34982  12.742  25.717  53.794
43059W        W34983  31.248  40.193  50.165
43060W        W34984  42.690   9.746  52.904
43061W        W34985  37.697  14.255  50.121
43062W        W34986   8.271  10.242  51.048
43063W        W34987  22.238  36.719  51.070
43064W        W34988   1.796  48.184  52.424
43065W        W34989  48.184  21.226  49.692
43066W        W34990  15.739   4.258  53.790
43067W        W34991   0.292  18.269  50.152
43068W        W34992  39.711  28.733  51.976
43069W        W34993  31.723  29.218  51.507
43070W        W34994  11.237  34.226  51.055
43071W        W34995  43.718  34.731  52.886
43072W        W34996   3.253  32.738  51.531
43073W        W34997  37.199   0.769  51.508
43074W        W34998  41.683  27.226  50.589
43075W        W34999  36.697  16.266  51.495
43076W        W35000  17.244  15.770  50.577
43077W        W35001  13.736  41.222  50.124
43078W        W35002  14.245   8.772  52.406
43079W        W35003  45.706  17.252  49.694
43080W        W35004  44.208  35.197  53.360
43081W        W35005  43.219   1.750  51.517
43082W        W35006  27.209  42.192  52.442
43083W        W35007  47.180  40.697  51.052
43084W        W35008  17.759  10.765  49.707
43085W        W35009  23.257  11.742  50.126
43086W        W35010   1.760  32.716  52.884
43087W        W35011  36.194  30.732  53.322
43088W        W35012   4.260   2.293  53.803
43089W        W35013  38.725   9.267  52.433
43090W        W35014  47.688  20.731  51.498
43091W        W35015  10.261  35.725  52.428
43092W        W35016  15.748  43.723  51.530
43093W        W35017  18.758  10.771  51.975
43094W        W35018  31.203  10.267  53.331
43095W        W35019  36.698  25.237  52.870
43096W        W35020  38.699  12.766  51.979
43097W        W35021  22.243   5.756  52.420
43098W        W35022  22.231  30.202  52.859
43099W        W35023  12.257  39.234  51.048
43100W        W35024  12.277  19.244  53.774
43101W        W35025  35.200  11.744  53.324
43102W        W35026  28.227  39.698  49.705
43103W        W35027  45.176  31.216  51.967
43104W        W35028  31.728   8.249  51.078
43105W        W35029   9.261   4.268  51.956
43106W        W35030  13.246  48.175  51.495
43107W        W35031   0.772  19.722  50.618
43108W        W35032   2.771  33.715  53.342
43109W        W35033  15.746   7.251  50.587
43110W        W35034  13.239  21.737  50.154
43111W        W35035  25.228  43.699  51.505
43112W        W35036  25.221  10.264  53.798
43113W        W35037   5.281  41.729  49.692
43114W        W35038  23.717  23.252  53.361
43115W        W35039  11.259   7.288  51.034
43116W        W35040   4.766  26.215  52.417
43117W        W35041  35.716  35.239  50.580
43118W        W35042  31.714  23.247  50.621
43119W        W35043  37.208  12.730  50.619
43120W        W35044  27.707  35.215  53.774
43121W        W35045  17.762  43.203  52.430
43122W        W35046  34.206  14.731  50.126
43123W        W35047  32.241  20.733  52.886
43124W        W35048  28.750  15.252  52.441
43125W        W35049   2.787   4.781  50.164
43126W        W35050   0.264  14.260  49.665
43127W        W35051  33.244  38.716  50.133
43128W        W35052  19.237   8.238  51.511
43129W        W35053  39.719  35.209  51.961
43130W        W35054  30.248  33.737  50.132
43131W        W35055  47.210  28.707  51.042
43132W        W35056  21.740  19.236  49.697
43133W        W35057   2.282  47.696  52.863
43134W        W35058  41.225  11.737  50.122
43135W        W35059  40.231  38.723  51.521
43136W        W35060  27.207   3.786  51.043
43137W        W35061   7.245   8.284  51.972
43138W        W35062   5.777  44.207  52.406
43139W        W35063   4.280   8.751  51.964
43140W        W35064  30.246  35.738  52.863
43141W        W35065   2.258  36.222  49.688
43142W        W35066  15.773  22.736  53.774
43143W        W35067   5.274  33.197  50.128
43144W        W35068  34.726  15.749  52.875
43145W        W35069  20.256  46.215  50.166
43146W        W35070  23.220  19.228  53.789
43147W        W35071  47.206  39.708  51.049
43148W        W35072  46.221  24.747  52.866
43149W        W35073  41.195   7.741  50.157
43150W        W35074   5.286  12.778  53.814
43151W        W35075  45.724  28.720  50.613
43152W        W35076  28.223  45.197  52.861
43153W        W35077   4.291  13.758  53.778
43154W        W35078  28.207  42.691  51.953
43155W        W35079  17.744  21.744  52.876
43156W        W35080   0.761  20.262  53.811
43157W        W35081   1.755  41.727  51.525
43158W        W35082  12.739  34.202  50.613
43159W        W35083  19.747  33.724  51.040
43160W        W35084  22.224  45.718  52.862
43161W        W35085  37.208  23.751  50.587
43162W        W35086  12.778   4.791  52.410
43163W        W35087  35.727  25.723  51.510
43164W        W35088  14.276  39.234  51.968
43165W        W35089   7.264  13.271  50.157
43166W        W35090  45.693   9.243  51.974
43167W        W35091   0.261  13.774  51.514
43168W        W35092  30.716  40.216  50.148
43169W        W35093   3.261  37.700  50.137
43170W        W35094  47.711  10.261  53.328
43171W        W35095  24.249   7.251  50.151
43172W        W35096  32.218  27.227  50.621
43173W        W35097   4.742   2.269  52.877
43174W        W35098   0.777  48.220  53.341
43175W        W35099  12.754  44.208  49.702
43176W        W35100  33.233  47.691  52.877
43177W        W35101  18.254  23.756  49.705
43178W        W35102   2.288  15.769  50.150
43179W        W35103  47.213  13.773  51.508
43180W        W35104  29.721  43.190  49.709
43181W        W35105  13.743  32.204  51.975
43182W        W35106  37.722  23.742  53.339
43183W        W35107  10.279   3.293  51.963
43184W        W35108  46.683  17.760  52.870
43185W        W35109  44.690  39.226  51.956
43186W        W35110  32.216  21.235  51.069
43187W        W35111  38.717   7.259  50.594
43188W        W35112   0.271  45.724  51.523
43189W        W35113  38.700  14.775  53.347
43190W        W35114  18.269  31.713  53.785
43191W        W35115  15.737  33.711  51.528
43192W        W35116  15.767  46.204  53.321
43193W        W35117  28.726  45.224  49.681
43194W        W35118  11.249   5.790  53.812
43195W        W35119  27.712  44.177  53.350
43196W        W35120  33.729  10.234  50.606
43197W        W35121  42.190  44.189  53.795
43198W        W35122  29.208  12.766  51.040
43199W        W35123  14.749  17.230  51.966
43200W        W35124   2.755  44.220  51.037
43201W        W35125  28.219  18.734  49.672
43202W        W35126  11.240  32.736  51.047
43203W        W35127  30.205   0.261  53.786
43204W        W35128  17.262  33.198  53.799
43205W        W35129  21.749  23.232  50.130
43206W        W35130   3.756   2.262  52.895
43207W        W35131  14.248  12.758  52.903
43208W        W35132  23.759  14.773  52.436
43209W        W35133  38.236  28.217  50.138
43210W        W35134  46.679   6.776  49.667
43211W        W35135   4.755   1.249  52.439
43212W        W35136  34.203  12.739  50.587
43213W        W35137  23.259  25.744  50.150
43214W        W35138  22.237  18.738  51.519
43215W        W35139  24.730  39.233  51.529
43216W        W35140  40.699  22.218  49.679
43217W        W35141   5.773   1.296  50.159
43218W        W35142   5.269  10.737  53.780
43219W        W35143  48.172  31.244  50.591
43220W        W35144  13.735  26.251  53.328
43221W        W35145  36.702  40.220  50.156
43222W        W35146   8.782  33.737  50.600
43223W        W35147   5.757  13.773  53.354
43224W        W35148   7.783   9.268  53.342
43225W        W35149  27.748  48.190  52.406
43226W        W35150  26.248  10.750  53.786
43227W        W35151  22.719  33.718  49.696
43228W        W35152  44.706  21.264  53.332
43229W        W35153  29.702  42.682  53.807
43230W        W35154  30.245   0.757  51.978
43231W        W35155  28.250  43.224  52.892
43232W        W35156  27.230   0.755  51.969
43233W        W35157  37.198   2.292  49.690
43234W        W35158  39.235  28.713  49.692
43235W        W35159  17.224   8.778  52.408
43236W        W35160   3.767  26.752  51.530
43237W        W35161  39.193  10.755  53.351
43238W        W35162  40.214   0.254  50.139
43239W        W35163  47.184  36.732  52.881
43240W        W35164  38.716  20.227  49.680
43241W        W35165  20.720  34.227  50.160
43242W        W35166  29.709   1.773  50.151
43243W        W35167  39.235  45.720  49.704
43244W        W35168   3.253  13.771  53.345
43245W        W35169   9.267  21.224  51.957
43246W        W35170  28.738  46.705  50.128
43247W        W35171  27.216  11.233  52.408
43248W        W35172   8.248  42.719  50.123
43249W        W35173  40.730   2.292  51.958
43250W        W35174   2.261  24.757  51.048
43251W        W35175   6.786  28.744  51.959
43252W        W35176   6.273   5.746  53.802
43253W        W35177  38.236  32.707  51.973
43254W        W35178  36.200  35.217  50.591
43255W        W35179  35.692  13.771  51.072
43256W        W35180  29.215  18.231  51.060
43257W        W35181  10.754   6.784  52.405
43258W        W35182  47.209   6.772  51.492
43259W        W35183   0.275  46.699  52.879
43260W        W35184   4.781  19.732  49.694
43261W        W35185  47.682  22.217  50.131
43262W        W35186   6.283  37.695  52.902
43263W        W35187   1.789  33.205  52.448
43264W        W35188  17.257  43.211  50.148
43265W        W35189  17.226   8.761  53.780
43266W        W35190  45.195  26.714  50.606
43267W        W35191  32.717   2.753  51.517
43268W        W35192  14.252  12.752  50.158
43269W        W35193   6.744  20.260  51.498
43270W        W35194  15.246   6.250  51.071
43271W        W35195  41.701  18.734  52.878
43272W        W35196   4.247   5.254  50.584
43273W        W35197  25.738  44.703  52.441
43274W        W35198  21.751  37.205  52.862
43275W        W35199  25.728  10.781  50.122
43276W        W35200  13.273  39.200  51.524
43277W        W35201  28.740   9.777  51.987
43278W        W35202  26.742  12.234  51.961
43279W        W35203   3.253  20.262  53.333
43280W        W35204  25.712   5.750  50.157
43281W        W35205  45.714  25.225  53.803
43282W        W35206   7.273  30.713  52.892
43283W        W35207  45.201   8.763  51.056
43284W        W35208  45.720  37.692  52.445
43285W        W35209  46.683  31.243  52.419
43286W        W35210  43.195  34.203  52.877
43287W        W35211  12.236   3.767  52.872
43288W        W35212  11.274  21.256  50.160
43289W        W35213  40.221  32.731  51.529
43290W        W35214  42.691  11.276  52.866
43291W        W35215   0.776  28.728  51.969
43292W        W35216   7.767   3.285  51.496
43293W        W35217  13.743  37.737  51.947
43294W        W35218  43.684  18.262  50.147
43295W        W35219  32.724  47.218  50.617
43296W        W35220  26.718  15.759  50.151
43297W        W35221   3.761  11.265  49.703
43298W        W35222  47.207  38.212  53.797
43299W        W35223   7.752  33.722  49.683
43300W        W35224  29.734  13.261  53.319
43301W        W35225  25.712  35.222  51.074
43302W        W35226  45.206  43.200  50.133
43303W        W35227  16.766  26.235  49.707
43304W        W35228  20.762   9.247  50.123
43305W        W35229  17.268  32.727  52.892
43306W        W35230  33.213  40.699  52.431
43307W        W35231  30.227  22.227  52.419
43308W        W35232  35.736  37.191  50.151
43309W        W35233  45.214  25.718  49.665
43310W        W35234  32.212  24.254  52.423
43311W        W35235  31.223  35.226  51.527
43312W        W35236  34.243  15.237  53.345
43313W        W35237   4.752   2.769  53.321
43314W        W35238  27.751  15.725  51.499
43315W        W35239  36.213  44.223  51.499
43316W        W35240  12.266  27.248  53.778
43317W        W35241  40.697  36.721  53.339
43318W        W35242  46.693   7.265  52.445
43319W        W35243  15.747  21.221  51.972
43320W        W35244   9.257  30.717  51.074
43321W        W35245  15.757   8.768  51.518
43322W        W35246  24.715  25.247  53.799
43323W        W35247  14.266   2.259  53.789
43324W        W35248  34.739  39.694  52.880
43325W        W35249  44.222  23.214  50.130
43326W        W35250  12.246  16.735  53.322
43327W        W35251  47.212  30.212  53.318
43328W        W35252  41.199  23.728  52.444
43329W        W35253  48.212  38.235  52.422
43330W        W35254  39.717   8.262  53.817
43331W        W35255  34.730  37.190  50.157
43332W        W35256   2.295  22.755  53.350
43333W        W35257  22.235  22.251  52.445
43334W        W35258   8.771  24.248  51.064
43335W        W35259  41.203  17.770  52.897
43336W        W35260  45.184  46.183  52.896
43337W        W35261  15.729  43.694  51.069
43338W        W35262   5.787   7.255  50.137
43339W        W35263  42.213  11.733  49.709
43340W        W35264  38.736  10.282  51.990
43341W        W35265  17.245   5.271  49.689
43342W        W35266   1.278  19.229  51.978
43343W        W35267  21.222   4.247  51.062
43344W        W35268   2.272   8.253  53.800
43345W        W35269  19.721   0.770  51.492
43346W        W35270  27.722  36.690  53.336
43347W        W35271  41.720  21.731  52.432
43348W        W35272  40.694  32.706  52.903
43349W        W35273  21.255  41.689  51.492
43350W        W35274  14.239   4.278  53.776
43351W        W35275   0.270  33.708  52.432
43352W        W35276  36.690  20.266  50.151
43353W        W35277   1.750  36.206  49.680
43354W        W35278   9.279   3.782  53.810
43355W        W35279  26.247  42.211  51.946
43356W        W35280  45.204  17.253  52.885
43357W        W35281   3.252  23.234  51.075
43358W        W35282  39.714  33.729  50.147
43359W        W35283  30.749  13.774  53.811
43360W        W35284  26.722  13.252  50.602
43361W        W35285  11.255  14.764  52.895
43362W        W35286  15.251  29.214  53.797
43363W        W35287  45.688  14.247  50.165
43364W        W35288   8.781  29.232  53.774
43365W        W35289  41.708  45.187  50.132
43366W        W35290  24.759   9.780  50.607
43367W        W35291  13.730  45.197  51.522
43368W        W35292  11.246  38.198  50.132
43369W        W35293   9.255  38.218  50.588
43370W        W35294  18.246   4.785  51.042
43371W        W35295  29.726  38.718  51.493
43372W        W35296   6.756   7.740  49.692
43373W        W35297  14.269  20.759  52.424
43374W        W35298  20.745  34.712  52.417
43375W        W35299  40.203   2.757  51.947
43376W        W35300  17.267  13.275  51.044
43377W        W35301  23.260  16.262  49.695
43378W        W35302  36.240  37.708  53.350
43379W        W35303   3.294  40.717  53.789
43380W        W35304  22.751  16.225  51.043
43381W        W35305  45.216  24.231  50.159
43382W        W35306  12.250  36.691  52.873
43383W        W35307  11.244  46.186  52.904
43384W        W35308  40.186  38.692  53.776
43385W        W35309  27.723  28.708  50.134
43386W        W35310   8.282  13.764  51.055
43387W        W35311  45.718  23.245  51.517
43388W        W35312  23.261  12.276  50.607
43389W        W35313  47.694  11.733  50.130
43390W        W35314  39.718  40.725  52.442
43391W        W35315  42.685  12.267  53.334
43392W        W35316  13.763  12.230  52.426
43393W        W35317  21.745  16.244  53.344
43394W        W35318  20.724  40.690  50.143
43395W        W35319  16.247  47.692  51.952
43396W        W35320  35.223  13.245  50.163
43397W        W35321  32.727  24.235  51.503
43398W        W35322  20.243  18.232  51.985
43399W        W35323  16.763  15.240  52.411
43400W        W35324  10.257  41.727  50.130
43401W        W35325  47.183  42.700  49.669
43402W        W35326  32.735  16.243  52.428
43403W        W35327   1.777  33.715  49.670
43404W        W35328  41.691  45.206  52.417
43405W        W35329  36.217   6.287  50.123
43406W        W35330  41.724  40.184  52.440
43407W        W35331  45.178  34.724  52.894
43408W        W35332  16.246  19.241  50.622
43409W        W35333  12.260  42.709  50.613
43410W        W35334  19.723  42.222  51.953
43411W        W35335  47.192  41.217  50.160
43412W        W35336  26.750  45.703  50.150
43413W        W35337  43.714  37.689  53.775
43414W        W35338   8.774   1.286  53.355
43415W        W35339  26.733  16.766  50.612
43416W        W35340  25.231  33.732  50.610
43417W        W35341   0.780  22.223  49.694
43418W        W35342   3.262   6.253  49.698
43419W        W35343  42.199  45.688  50.619
43420W        W35344  27.747  37.737  53.798
43421W        W35345   5.746  31.743  49.696
43422W        W35346  33.200  47.698  52.437
43423W        W35347  39.228  24.255  50.621
43424W        W35348  12.759  28.244  50.140
43425W        W35349   0.286  23.747  50.606
43426W        W35350  12.763  25.213  51.974
43427W        W35351  48.220   6.282  50.600
43428W        W35352   2.259   2.790  51.500
43429W        W35353   0.774  16.754  51.979
43430W        W35354  32.236   5.263  51.500
43431W        W35355  12.248  44.200  51.523
43432W        W35356  23.221  34.236  50.581
43433W        W35357   2.267  13.244  53.796
43434W        W35358  26.719   3.773  52.405
43435W        W35359  32.202  11.737  53.318
43436W        W35360   5.753  22.732  51.517
43437W        W35361  17.262  13.759  53.321
43438W        W35362  19.224  44.695  51.948
43439W        W35363  13.255   8.763  52.889
43440W        W35364  38.218  20.727  52.408
43441W        W35365  34.718   1.284  52.866
43442W        W35366  41.688  29.232  52.891
43443W        W35367  19.744  28.207  53.805
43444W        W35368  13.239  41.718  53.804
43445W        W35369  15.261  33.244  52.432
43446W        W35370  45.717  23.248  52.419
43447W        W35371  40.711  22.251  53.335
43448W        W35372  27.706  23.218  53.795
43449W        W35373  37.207  20.764  51.525
43450W        W35374   5.246   5.279  52.438
43451W        W35375  39.228  20.721  52.899
43452W        W35376  33.728   1.282  52.430
43453W        W35377  14.259  18.758  51.952
43454W        W35378  38.732  36.693  50.147
43455W        W35379  48.214  40.184  52.893
43456W        W35380   8.247   6.782  53.787
43457W        W35381  20.723   0.770  51.068
43458W        W35382  36.723  43.222  52.874
43459W        W35383  25.719  17.736  52.431
43460W        W35384  19.732  19.249  52.866
43461W        W35385  43.222  17.235  53.809
43462W        W35386  10.248  15.250  53.326
43463W        W35387   8.278  15.236  50.131
43464W        W35388  28.207  13.756  51.965
43465W        W35389   7.749  18.255  51.052
43466W        W35390  29.722  47.697  52.871
43467W        W35391  44.724  38.716  50.158
43468W        W35392  31.246  11.273  51.042
43469W        W35393  20.757   7.761  52.884
43470W        W35394  13.755  39.208  51.062
43471W        W35395   3.780  18.720  51.970
43472W        W35396  17.770  19.740  51.056
43473W        W35397  20.730  28.744  52.410
43474W        W35398  47.176  42.712  53.345
43475W        W35399  16.735  11.743  51.953
43476W        W35400  28.728  10.757  51.531
43477W        W35401   6.274  45.181  53.327
43478W        W35402   0.298  45.705  50.143
43479W        W35403  46.674  10.236  49.692
43480W        W35404  25.717  21.255  50.592
43481W        W35405  37.197  46.221  51.047
43482W        W35406  23.248  11.734  51.037
43483W        W35407  13.749  34.212  53.793
43484W        W35408  26.743  41.721  53.360
43485W        W35409  11.759  20.217  52.404
43486W        W35410   9.251   9.777  51.964
43487W        W35411  19.227  22.745  51.978
43488W        W35412  15.272  29.229  51.495
43489W        W35413  27.714  19.220  50.148
43490W        W35414  13.238  15.753  51.062
43491W        W35415   7.283  40.207  53.773
43492W        W35416   4.293  35.724  51.983
43493W        W35417  35.732   2.290  51.975
43494W        W35418  35.738   1.790  51.534
43495W        W35419  31.717  17.725  50.601
43496W        W35420  19.761   6.762  53.360
43497W        W35421   9.245   0.266  51.495
43498W        W35422  40.714   5.766  53.782
43499W        W35423   8.769  11.743  50.153
43500W        W35424  10.263  19.252  53.816
43501W        W35425   2.291  38.706  49.689
43502W        W35426  19.244  37.708  51.528
43503W        W35427   8.245  25.241  53.809
43504W        W35428   2.773  30.228  51.535
43505W        W35429   1.792   9.261  53.814
43506W        W35430  11.777  40.187  53.347
43507W        W35431  18.255   4.765  50.125
43508W        W35432  33.217  44.703  50.590
43509W        W35433  25.240  21.243  52.873
43510W        W35434  27.707  19.227  51.957
43511W        W35435  34.198   7.276  51.507
43512W        W35436  26.240  14.761  50.124
43513W        W35437   5.250  21.224  51.497
43514W        W35438  47.684  22.734  51.044
43515W        W35439  29.716  16.758  51.042
43516W        W35440  47.190  28.733  49.709
43517W        W35441  35.740  16.733  52.442
43518W        W35442   6.257   4.249  51.513
43519W        W35443  25.225  40.727  52.901
43520W        W35444   3.757  39.713  50.600
43521W        W35445  10.269  11.254  51.071
43522W        W35446   0.771   9.264  49.707
43523W        W35447  27.206  32.225  50.593
43524W        W35448   8.286  23.747  53.800
43525W        W35449   0.779  27.721  51.527
43526W        W35450   4.749  24.226  51.497
43527W        W35451  19.744  46.709  53.358
43528W        W35452   5.755  39.209  50.154
43529W        W35453  31.726   3.248  53.324
43530W        W35454  35.230  45.221  51.979
43531W        W35455  41.189  27.721  51.952
43532W        W35456  26.221  20.242  51.061
43533W        W35457  35.707  25.248  51.059
43534W        W35458  29.724  43.207  50.141
43535W        W35459  46.194  10.733  51.506
43536W        W35460  41.195  19.721  51.985
43537W        W35461  14.241  28.733  51.501
43538W        W35462  14.764  45.175  53.786
43539W        W35463   1.279  17.262  52.896
43540W        W35464  14.247   4.248  52.416
43541W        W35465  34.196  46.705  49.694
43542W        W35466  25.728  48.187  52.420
43543W        W35467   0.285  30.227  51.964
43544W        W35468  45.695  13.762  53.343
43545W        W35469  18.725  32.709  52.403
43546W        W35470  43.681   3.261  49.709
43547W        W35471   8.772  44.680  51.975
43548W        W35472  33.228  25.753  52.436
43549W        W35473  24.715   3.263  51.955
43550W        W35474  29.239   2.280  53.321
43551W        W35475  18.257  11.755  52.863
43552W        W35476   5.280  15.750  52.861
43553W        W35477  22.214  17.724  50.621
43554W        W35478  40.730  11.753  51.039
43555W        W35479   3.770  41.728  51.524
43556W        W35480  21.237  47.195  53.815
43557W        W35481  15.255  26.737  53.341
43558W        W35482  11.760  21.749  53.334
43559W        W35483   4.257  15.749  50.154
43560W        W35484  18.232  27.249  50.158
43561W        W35485  25.230   8.255  53.358
43562W        W35486  30.718  36.195  49.687
43563W        W35487  20.758  30.730  53.340
43564W        W35488  10.769  25.718  52.416
43565W        W35489  23.225  44.189  51.979
43566W        W35490  31.203   1.785  52.904
43567W        W35491  18.224   8.749  50.601
43568W        W35492  48.172   5.245  53.316
43569W        W35493   7.279  42.203  52.876
43570W        W35494  31.216  47.675  51.060
43571W        W35495  35.227  12.249  51.053
43572W        W35496  17.230  31.234  52.886
43573W        W35497  39.733  38.724  52.408
43574W        W35498  28.239  23.716  52.875
43575W        W35499   3.271  30.728  51.500
43576W        W35500  42.226  42.187  52.408
43577W        W35501  17.738   1.789  53.779
43578W        W35502  47.697   1.258  52.412
43579W        W35503  42.206  16.258  52.445
43580W        W35504  14.770  26.755  52.888
43581W        W35505  14.760  36.211  53.812
43582W        W35506  40.702   1.762  51.987
43583W        W35507   0.254  16.251  52.892
43584W        W35508  13.753  45.192  51.045
43585W        W35509  29.749  37.710  51.079
43586W        W35510   9.247   6.283  53.796
43587W        W35511   2.280  32.247  51.961
43588W        W35512   2.260  19.760  51.518
43589W        W35513   1.795   3.757  51.073
43590W        W35514  27.220  17.266  49.689
43591W        W35515  34.199  24.733  53.359
43592W        W35516  13.232  19.729  51.059
43593W        W35517  17.223  15.248  50.164
43594W        W35518  16.729  19.224  51.041
43595W        W35519  20.759   0.759  52.419
43596W        W35520   1.260  46.193  53.348
43597W        W35521   3.289  13.249  53.345
43598W        W35522   2.748  22.228  50.595
43599W        W35523  21.746  47.712  51.533
43600W        W35524  22.235  44.706  51.052
43601W        W35525  44.686  27.727  52.426
43602W        W35526  23.230  33.709  50.133
43603W        W35527  13.768  11.769  51.974
43604W        W35528  41.699   9.757  51.527
43605W        W35529  42.726  14.752  51.992
43606W        W35530  47.685  41.193  49.672
43607W        W35531  37.238  26.714  52.891
43608W        W35532   7.286  20.719  49.697
43609W        W35533  20.740  44.699  50.587
43610W        W35534   0.295  39.187  50.133
43611W        W35535  27.241  35.203  49.694
43612W        W35536  47.193  47.177  53.348
43613W        W35537  14.747  13.257  49.706
43614W        W35538  12.759  33.215  51.047
43615W        W35539   9.775  27.223  50.587
43616W        W35540   1.252  17.765  49.679
43617W        W35541   2.769   9.275  51.049
43618W        W35542  20.750  36.232  51.492
43619W        W35543  11.751  15.233  52.410
43620W        W35544  32.730  24.737  51.981
43621W        W35545   1.258  17.740  51.510
43622W        W35546  42.695   3.768  51.533
43623W        W35547   2.771   1.275  49.680
43624W        W35548   8.743  12.767  50.145
43625W        W35549  35.719   4.245  50.140
43626W        W35550  44.685  43.685  51.978
43627W        W35551  42.717  18.732  52.863
43628W        W35552  22.725  31.247  50.617
43629W        W35553  23.241  12.773  49.694
43630W        W35554  12.262   9.253  53.348
43631W        W35555  39.713  46.692  51.950
43632W        W35556  27.212   1.252  49.684
43633W        W35557  42.715  17.231  50.151
43634W        W35558  25.741   7.743  53.806
43635W        W35559   5.251  48.191  53.800
43636W        W35560   7.250   8.746  53.358
43637W        W35561  29.203   6.782  49.706
43638W        W35562  17.728   0.752  53.776
43639W        W35563  16.237  16.244  52.418
43640W        W35564  37.194  17.223  51.948
43641W        W35565  15.231   3.744  50.619
43642W        W35566  16.261  17.257  51.969
43643W        W35567  19.259  47.696  53.339
43644W        W35568   9.743   6.780  51.077
43645W        W35569  10.278  30.226  49.671
43646W        W35570  11.232  43.225  52.889
43647W        W35571  22.249  30.204  53.813
43648W        W35572  47.690  20.751  50.133
43649W        W35573   8.767  26.727  52.900
43650W        W35574  23.213   5.268  49.668
43651W        W35575  15.753  10.735  53.338
43652W        W35576  13.751  38.698  51.991
43653W        W35577  29.249  19.223  51.076
43654W        W35578  31.727  41.207  51.992
43655W        W35579  48.177   5.271  51.966
43656W        W35580  19.255  23.724  51.054
43657W        W35581   7.285  40.709  52.436
43658W        W35582  41.188  26.224  50.582
43659W        W35583  20.718  30.223  52.421
43660W        W35584  21.747   3.768  51.524
43661W        W35585  33.704   4.784  50.162
43662W        W35586  29.209   2.285  52.425
43663W        W35587  46.706  44.184  50.165
43664W        W35588  14.262   8.250  51.071
43665W        W35589  16.231  25.248  51.964
43666W        W35590   0.295  34.206  49.702
43667W        W35591  28.737  25.240  52.416
43668W        W35592  31.714  24.725  52.416
43669W        W35593   8.762  19.259  49.686
43670W        W35594  39.719  46.177  51.523
43671W        W35595  43.213  24.725  53.812
43672W        W35596  19.263   7.261  53.336
43673W        W35597  42.204  45.677  51.983
43674W        W35598   9.743  39.734  53.346
43675W        W35599  36.727  38.711  51.984
43676W        W35600  13.772  38.700  50.584
43677W        W35601  18.268  19.268  52.411
43678W        W35602  30.200  30.739  52.904
43679W        W35603   3.785   4.260  51.954
43680W        W35604  18.760  26.227  51.037
43681W        W35605   5.285  33.195  49.683
43682W        W35606   0.262   2.754  51.047
43683W        W35607  22.754  27.710  52.862
43684W        W35608  47.191   9.279  53.802
43685W        W35609  37.717  39.205  50.605
43686W        W35610   5.756  31.726  52.881
43687W        W35611   0.779  22.745  52.891
43688W        W35612  18.224   7.775  53.798
43689W        W35613  28.733  25.741  50.154
43690W        W35614  19.763  35.217  53.344
43691W        W35615  37.216  41.697  50.148
43692W        W35616  35.721   5.268  53.337
43693W        W35617  48.198   3.750  53.330
43694W        W35618  24.744   9.279  51.035
43695W        W35619   6.774  24.221  52.440
43696W        W35620  23.232  36.196  52.439
43697W        W35621  45.223   0.294  52.416
43698W        W35622  27.209  38.233  51.972
43699W        W35623   1.269  37.732  51.500
43700W        W35624  12.745  13.240  49.675
43701W        W35625  11.777  40.691  51.979
43702W        W35626   7.239  11.261  52.890
43703W        W35627  35.722  31.713  50.149
43704W        W35628   3.273  41.723  51.059
43705W        W35629  32.241   6.751  49.685
43706W        W35630  10.762  26.743  49.709
43707W        W35631  25.741  29.213  51.495
43708W        W35632  42.727   4.744  51.506
43709W        W35633   6.262  31.217  50.156
43710W        W35634  13.251  35.212  49.669
43711W        W35635  38.730  37.718  53.341
43712W        W35636   3.261  34.229  52.870
43713W        W35637  29.221  33.696  50.147
43714W        W35638  15.769  11.767  52.863
43715W        W35639  37.201  27.750  53.316
43716W        W35640  28.234  25.709  50.588
43717W        W35641  46.681  36.716  53.347
43718W        W35642  32.739  10.266  53.351
43719W        W35643  15.246  26.222  53.803
43720W        W35644  20.242  27.740  49.684
43721W        W35645  20.240  45.187  52.880
43722W        W35646  19.253  31.736  52.885
43723W        W35647  31.221  22.224  52.448
43724W        W35648  45.698  19.241  49.688
43725W        W35649   9.746   5.778  50.603
43726W        W35650   0.765  38.697  52.421
43727W        W35651  31.716   1.760  52.901
43728W        W35652  19.754  18.767  53.333
43729W        W35653  26.209   0.755  52.433
43730W        W35654  46.187  25.754  50.617
43731W        W35655  31.704  11.254  49.697
43732W        W35656   3.791  45.691  49.692
43733W        W35657  47.215  40.208  51.520
43734W        W35658  36.715  17.268  52.412
43735W        W35659  10.272   2.271  51.058
43736W        W35660  35.214  41.723  49.677
43737W        W35661  29.733  11.270  51.079
43738W        W35662  38.728  45.685  52.864
43739W        W35663  14.232   5.747  51.068
43740W        W35664   4.268  22.262  51.068
43741W        W35665  12.251  15.729  51.040
43742W        W35666  11.272  16.272  51.070
43743W        W35667   5.770  15.233  53.319
43744W        W35668  37.233  42.185  53.805
43745W        W35669  34.732  28.733  50.140
43746W        W35670  24.727  23.226  51.511
43747W        W35671  44.705  21.250  50.131
43748W        W35672  48.172  22.261  51.499
43749W        W35673  33.222  42.714  51.958
43750W        W35674  43.705  48.188  51.988
43751W        W35675  32.744  38.205  52.426
43752W        W35676  39.703  43.223  51.069
43753W        W35677  11.252  19.243  49.687
43754W        W35678  35.703  24.756  50.148
43755W        W35679  41.190  47.697  52.901
43756W        W35680  39.200  34.712  53.811
43757W        W35681  28.213  47.216  52.414
43758W        W35682  12.733  25.258  50.579
43759W        W35683   0.257  38.695  53.782
43760W        W35684  35.221  13.265  51.950
43761W        W35685  24.213   4.281  53.320
43762W        W35686  15.265  19.228  52.405
43763W        W35687   8.769  37.233  53.346
43764W        W35688  10.779  48.212  50.614
43765W        W35689  12.756  20.719  50.606
43766W        W35690  13.767  27.705  51.975
43767W        W35691  45.682   4.275  50.139
43768W        W35692  35.736  16.233  52.410
43769W        W35693  22.228   0.754  49.689
43770W        W35694  34.195   0.766  52.863
43771W        W35695  43.694  15.744  53.329
43772W        W35696   3.781  45.710  50.611
43773W        W35697  48.178  13.750  51.507
43774W        W35698  10.279  46.177  50.150
43775W        W35699  31.739  18.762  53.337
43776W        W35700   1.274  17.225  52.406
43777W        W35701  16.266  39.189  49.666
43778W        W35702  34.215   7.246  52.436
43779W        W35703   4.791  48.216  53.787
43780W        W35704  23.714  42.197  52.905
43781W        W35705   5.786  19.767  52.412
43782W        W35706  24.239  35.703  50.584
43783W        W35707  47.707  14.772  50.132
43784W        W35708  30.747   9.276  53.330
43785W        W35709  35.202   0.274  49.688
43786W        W35710  27.709  10.774  50.583
43787W        W35711  41.728  29.219  53.325
43788W        W35712   2.781  23.220  52.405
43789W        W35713  10.270  14.261  50.164
43790W        W35714  22.732  46.676  53.793
43791W        W35715  27.722  47.681  53.798
43792W        W35716  43.696  18.741  53.339
43793W        W35717  37.730  27.713  50.133
43794W        W35718   9.745   3.256  53.345
43795W        W35719  37.719  30.236  49.684
43796W        W35720   7.777  18.742  51.528
43797W        W35721  37.235  47.183  50.611
43798W        W35722  33.196  10.243  50.613
43799W        W35723  38.709  10.268  50.151
43800W        W35724   3.291  15.274  50.599
43801W        W35725  27.213  30.724  53.328
43802W        W35726  42.181  32.704  53.795
43803W        W35727   8.775  45.191  52.414
43804W        W35728  19.233  34.695  50.611
43805W        W35729  20.265  37.230  52.869
43806W        W35730  34.725   8.781  51.068
43807W        W35731  31.732  18.727  50.159
43808W        W35732  18.236  30.746  51.975
43809W        W35733   3.789  27.741  49.672
43810W        W35734  22.749  17.742  52.404
43811W        W35735   5.780  39.718  53.360
43812W        W35736  11.761   3.251  51.965
43813W        W35737  41.719  34.737  52.409
43814W        W35738  23.229   4.789  52.433
43815W        W35739  41.720   4.286  52.887
43816W        W35740  26.249   0.283  51.498
43817W        W35741  14.261  21.260  50.159
43818W        W35742  16.749  21.260  49.708
43819W        W35743   5.256   7.740  52.428
43820W        W35744  17.271  34.718  51.988
43821W        W35745   5.754  25.243  51.969
43822W        W35746  33.232  18.259  52.423
43823W        W35747   6.778  11.233  51.498
43824W        W35748   9.772  15.264  50.153
43825W        W35749  36.216  48.186  50.595
43826W        W35750   6.257  44.203  50.595
43827W        W35751  19.266  14.749  52.410
43828W        W35752  17.250  39.724  50.588
43829W        W35753  44.223  27.726  51.496
43830W        W35754   7.287  27.236  53.782
43831W        W35755   1.755  46.204  51.513
43832W        W35756  32.705  47.694  52.410
43833W        W35757  22.247  13.274  50.165
43834W        W35758  40.221  35.220  50.619
43835W        W35759  47.679  42.228  50.598
43836W        W35760  21.758  15.772  53.338
43837W        W35761   2.274  45.708  52.901
43838W        W35762  25.738  40.712  51.507
43839W        W35763  24.225  28.245  49.676
43840W        W35764  11.747  12.237  50.608
43841W        W35765   6.761  39.206  51.985
43842W        W35766   4.250  26.246  51.048
43843W        W35767  25.240  16.768  51.511
43844W        W35768  41.217  15.258  51.516
43845W        W35769   4.790  41.229  49.689
43846W        W35770  25.715  30.219  52.904
43847W        W35771  10.233  42.200  50.139
43848W        W35772  30.210  39.717  49.677
43849W        W35773  22.224  31.221  51.968
43850W        W35774  34.724   7.749  52.420
43851W        W35775  21.716  41.708  51.522
43852W        W35776  44.680   3.755  53.809
43853W        W35777  47.175  38.217  53.330
43854W        W35778   1.788   0.269  50.594
43855W        W35779  47.207  39.200  51.521
43856W        W35780  47.217  36.220  51.962
43857W        W35781  31.718   9.255  52.871
43858W        W35782  29.237  31.733  51.068
43859W        W35783  14.735  35.702  50.583
43860W        W35784  37.216  11.261  49.682
43861W        W35785  26.725  17.755  49.688
43862W        W35786  13.276  30.235  51.495
43863W        W35787  41.725  20.739  51.064
43864W        W35788  18.748  40.698  53.778
43865W        W35789   8.243   3.775  50.607
43866W        W35790  16.730  24.753  51.040
43867W        W35791   6.280  32.743  53.328
43868W        W35792  13.251   4.277  51.986
43869W        W35793  33.738  41.192  49.675
43870W        W35794  16.252  22.759  51.500
43871W        W35795  21.761  11.267  50.583
43872W        W35796  12.750  25.232  51.041
43873W        W35797  18.222  42.205  53.777
43874W        W35798  20.243  28.226  52.890
43875W        W35799  40.225  18.268  53.787
43876W        W35800  21.716   9.272  50.127
43877W        W35801  27.744  14.240  51.040
43878W        W35802   7.761   3.245  51.978
43879W        W35803  12.734  36.236  52.868
43880W        W35804  42.728  17.770  51.991
43881W        W35805  21.735  13.248  50.591
43882W        W35806  17.233   2.771  52.904
43883W        W35807  15.226  30.740  52.437
43884W        W35808  27.226  26.238  51.510
43885W        W35809  16.260  47.676  50.125
43886W        W35810  35.222  43.685  50.618
43887W        W35811   3.762   2.764  50.613
43888W        W35812  23.254  25.246  50.621
43889W        W35813  42.212  43.191  53.812
43890W        W35814  13.752  36.228  51.956
43891W        W35815   9.271   4.776  49.690
43892W        W35816  30.219  17.761  51.980
43893W        W35817  26.239  25.213  52.431
43894W        W35818   9.758  45.707  52.424
43895W        W35819  32.716  21.747  51.953
43896W        W35820   4.772  20.227  51.988
43897W        W35821  26.750  15.266  53.350
43898W        W35822   4.769  10.769  50.610
43899W        W35823  36.214   5.257  49.669
43900W        W35824  25.217   8.740  49.669
43901W        W35825  37.710  28.204  52.437
43902W        W35826  45.204  47.673  51.061
43903W        W35827   0.762  36.718  51.990
43904W        W35828  12.279  38.213  50.602
43905W        W35829  19.763  47.683  53.806
43906W        W35830   6.761  20.742  50.613
43907W        W35831  15.244  17.235  50.578
43908W        W35832  40.717  48.213  49.705
43909W        W35833  15.247  26.218  51.534
43910W        W35834  20.739  10.246  49.695
43911W        W35835   1.260  42.193  51.961
43912W        W35836  39.699  33.239  51.535
43913W        W35837   6.778  23.741  50.589
43914W        W35838  44.223  27.208  49.690
43915W        W35839  35.731  42.719  53.785
43916W        W35840  19.238  38.233  51.990
43917W        W35841  34.205  41.698  52.435
43918W        W35842  22.243  29.722  51.064
43919W        W35843   0.284  26.737  51.502
43920W        W35844  39.217  24.711  49.670
43921W        W35845  25.253  10.761  51.056
43922W        W35846  40.689   1.254  51.065
43923W        W35847   6.271   4.744  52.407
43924W        W35848   0.788  38.200  50.142
43925W        W35849   4.254  32.738  51.074
43926W        W35850  46.677  19.223  53.321
43927W        W35851   0.769  35.712  53.815
43928W        W35852   7.286  43.689  51.061
43929W        W35853  16.224   1.789  53.327
43930W        W35854  31.217  32.710  51.969
43931W        W35855  16.235  31.238  53.803
43932W        W35856   8.780  21.256  52.422
43933W        W35857  10.768  30.729  53.345
43934W        W35858  46.197  23.213  51.987
43935W        W35859  33.700  10.735  50.589
43936W        W35860  19.764  23.716  53.325
43937W        W35861  20.763   6.785  53.326
43938W        W35862  13.239  33.730  53.336
43939W        W35863  31.729  40.199  50.614
43940W        W35864  43.202  42.181  49.671
43941W        W35865  14.272  46.187  53.783
43942W        W35866  35.197  32.734  52.899
43943W        W35867  16.730  42.190  52.408
43944W        W35868  19.742  29.224  49.697
43945W        W35869  32.205  40.203  50.579
43946W        W35870  10.263  37.217  51.037
43947W        W35871  19.247   6.273  50.138
43948W        W35872  23.261  11.260  51.954
43949W        W35873  11.734  28.719  53.359
43950W        W35874  24.747  33.199  49.696
43951W        W35875  44.716  23.252  51.533
43952W        W35876  17.748  34.206  52.412
43953W        W35877  15.745   8.745  51.066
43954W        W35878  34.729  42.716  51.969
43955W        W35879  24.221  44.722  49.679
43956W        W35880   1.250  44.725  52.893
43957W        W35881  44.708  43.193  53.785
43958W        W35882  19.227   4.786  52.437
43959W        W35883  22.226  14.768  50.150
43960W        W35884   2.770  11.753  52.408
43961W        W35885   9.280  45.195  50.148
43962W        W35886  14.748  23.251  52.886
43963W        W35887  15.234  34.199  52.862
43964W        W35888  36.221  23.720  50.124
43965W        W35889  40.727  30.708  52.437
43966W        W35890  12.261  10.764  52.865
43967W        W35891  10.738  39.703  50.143
43968W        W35892  11.735  46.683  50.157
43969W        W35893  37.730  21.231  53.352
43970W        W35894  29.243  36.701  53.331
43971W        W35895  14.246   0.252  51.041
43972W        W35896  25.245  43.716  49.677
43973W        W35897  26.236  44.195  50.596
43974W        W35898   2.286  44.192  52.412
43975W        W35899  38.234  14.267  51.972
43976W        W35900  42.205  35.715  53.815
43977W        W35901  34.226  31.211  51.975
43978W        W35902   5.767  41.194  51.049
43979W        W35903  39.729  27.233  53.348
43980W        W35904  33.244  42.684  53.343
43981W        W35905  28.232  32.720  50.599
43982W        W35906  28.246  31.200  51.521
43983W        W35907  34.710   0.758  50.596
43984W        W35908  42.212   5.777  51.491
43985W        W35909  13.772  19.750  53.792
43986W        W35910   0.277  14.271  53.794
43987W        W35911  22.740  48.215  50.137
43988W        W35912  17.770   2.255  52.891
43989W        W35913  45.714  47.181  51.496
43990W        W35914  43.692  25.746  52.436
43991W        W35915  46.177  36.224  53.354
43992W        W35916  11.740  10.749  50.128
43993W        W35917  19.745  29.718  50.622
43994W        W35918  13.752  39.711  51.958
43995W        W35919  47.721  22.755  50.152
43996W        W35920  16.760  46.676  53.358
43997W        W35921  39.688  19.243  53.779
43998W        W35922   8.237   5.751  52.898
43999W        W35923  30.725  21.721  53.801
44000W        W35924   6.776  36.237  50.613
44001W        W35925  20.235  12.757  53.790
44002W        W35926  39.707  25.254  51.037
44003W        W35927  22.249  34.237  49.704
44004W        W35928  20.247  45.714  52.903
44005W        W35929  21.721  15.249  53.812
44006W        W35930   0.753  18.260  52.884
44007W        W35931  14.252  38.224  53.786
44008W        W35932   9.262   5.280  52.866
44009W        W35933  48.216  21.225  50.606
44010W        W35934  27.230  10.748  52.411
44011W        W35935  33.706   6.746  50.122
44012W        W35936  24.221  33.227  50.594
44013W        W35937  15.742  39.201  50.607
44014W        W35938  30.722  37.214  49.694
44015W        W35939  25.245  18.225  52.417
44016W        W35940  30.741   7.758  51.505
44017W        W35941  38.702  31.208  52.866
44018W        W35942  11.765   5.761  52.408
44019W        W35943  10.263  47.718  51.524
44020W        W35944  42.695  21.732  52.893
44021W        W35945  35.196  17.743  53.809
44022W        W35946  18.741  22.741  50.615
44023W        W35947  42.707  31.701  51.504
44024W        W35948  24.755  37.203  51.518
44025W        W35949   2.783  14.243  50.140
44026W        W35950  17.722  46.704  51.500
44027W        W35951  42.691   6.272  50.127
44028W        W35952  11.274  29.239  51.047
44029W        W35953  45.178  17.250  53.342
44030W        W35954  32.731  38.717  51.968
44031W        W35955  38.236   1.264  50.131
44032W        W35956   2.289  12.772  51.491
44033W        W35957  20.765  29.707  52.421
44034W        W35958  43.688  17.247  53.332
44035W        W35959   0.271  36.199  53.316
44036W        W35960   1.768  47.677  50.579
44037W        W35961  17.734   7.762  52.860
44038W        W35962  17.236  43.186  50.600
44039W        W35963   5.782  40.229  51.060
44040W        W35964   5.257  31.205  51.057
44041W        W35965   5.267  28.711  52.900
44042W        W35966  26.211  33.199  50.146
44043W        W35967  45.713  42.228  50.602
44044W        W35968   1.769  40.191  52.436
44045W        W35969   0.259  15.769  50.160
44046W        W35970   0.260  20.759  52.891
44047W        W35971  34.224  32.228  51.494
44048W        W35972  48.186   4.743  51.963
44049W        W35973  31.738   8.780  53.322
44050W        W35974  34.214   3.744  53.338
44051W        W35975  29.220  46.684  51.049
44052W        W35976  21.721  45.700  50.132
44053W        W35977  43.707  21.744  53.353
44054W        W35978  28.229  29.219  50.151
44055W        W35979  23.720  19.245  50.141
44056W        W35980  24.238  29.702  50.162
44057W        W35981  43.692  22.750  52.874
44058W        W35982   2.775  25.722  51.524
44059W        W35983  39.713  27.708  50.149
44060W        W35984  39.212  25.718  51.036
44061W        W35985  45.679  23.732  51.508
44062W        W35986  37.222  18.762  51.530
44063W        W35987   6.272  19.724  50.588
44064W        W35988   9.242   6.289  51.055
44065W        W35989  30.204  13.775  51.951
44066W        W35990  46.176  28.207  51.049
44067W        W35991   9.239   9.748  53.807
44068W        W35992   5.246  43.190  52.873
44069W        W35993  10.271  18.760  53.773
44070W        W35994  41.727  23.745  53.788
44071W        W35995  28.205  19.725  52.889
44072W        W35996  14.728  23.736  53.806
44073W        W35997  25.238  22.251  51.968
44074W        W35998   3.750   0.771  52.430
44075W        W35999  28.708  14.769  50.164
44076W        W36000  27.750  28.242  53.339
44077W        W36001   7.785  36.237  52.887
44078W        W36002  33.733  32.225  49.672
44079W        W36003  44.723  40.205  51.036
44080W        W36004  31.708  36.706  52.415
44081W        W36005  16.242  45.685  51.052
44082W        W36006   4.781  46.183  49.668
44083W        W36007  45.190  40.196  51.978
44084W        W36008  14.246   0.777  52.440
44085W        W36009  22.732   7.750  52.415
44086W        W36010  47.180  24.756  50.579
44087W        W36011  42.221  38.200  52.904
44088W        W36012  13.739  30.242  52.448
44089W        W36013  11.258  44.204  53.323
44090W        W36014   8.768   8.759  50.140
44091W        W36015  29.716   5.760  51.073
44092W        W36016  29.238  10.260  52.419
44093W        W36017  47.186  20.761  53.322
44094W        W36018   2.286  32.735  49.684
44095W        W36019  31.713  32.738  51.526
44096W        W36020   0.762  34.215  50.597
44097W        W36021   7.283  42.185  49.703
44098W        W36022  34.695   7.784  51.504
44099W        W36023   7.779   0.783  51.530
44100W        W36024  44.709  12.235  50.147
44101W        W36025   6.785  13.775  51.071
44102W        W36026   3.284  14.269  51.960
44103W        W36027  44.190  25.750  51.496
44104W        W36028  13.777  26.226  51.969
44105W        W36029  17.754  48.199  52.886
44106W        W36030  31.220  47.210  51.053
44107W        W36031  15.767  24.248  52.422
44108W        W36032   7.755  19.224  51.076
44109W        W36033  28.209  12.756  51.068
44110W        W36034   7.283  23.715  53.782
44111W        W36035   2.250  32.245  50.604
44112W        W36036  46.720  18.726  51.967
44113W        W36037  20.264  16.258  50.133
44114W        W36038  35.209  15.773  52.896
44115W        W36039  43.680   7.759  50.133
44116W        W36040  28.719  11.249  50.598
44117W        W36041   8.778  46.201  51.956
44118W        W36042   2.785   7.260  50.124
44119W        W36043  41.721  36.700  51.984
44120W        W36044  13.233   2.283  50.589
44121W        W36045   4.786  12.273  51.966
44122W        W36046  18.241   2.786  51.529
44123W        W36047  43.224   6.744  49.668
44124W        W36048  23.222   2.746  51.035
44125W        W36049  21.244  33.231  50.585
44126W        W36050  26.220   3.787  51.497
44127W        W36051   6.783  27.216  52.446
44128W        W36052   9.281  16.762  51.509
44129W        W36053  13.739  23.247  53.798
44130W        W36054   3.750  19.759  52.419
44131W        W36055  40.203   2.284  52.421
44132W        W36056  39.731  44.182  53.349
44133W        W36057  36.719  11.251  50.154
44134W        W36058  14.264  45.685  52.422
44135W        W36059   8.240  44.711  52.865
44136W        W36060  35.722   4.278  51.513
44137W        W36061  23.231  23.755  50.593
44138W        W36062   8.250  41.696  50.586
44139W        W36063  15.728  15.753  49.673
44140W        W36064  20.731  10.759  50.162
44141W        W36065  36.698  16.237  51.071
44142W        W36066  39.221   9.244  53.331
44143W        W36067  39.727  24.746  51.507
44144W        W36068  19.226  34.241  50.151
44145W        W36069  16.247   3.774  52.406
44146W        W36070   4.762  32.738  52.420
44147W        W36071  10.239  16.751  51.510
44148W        W36072   8.284   4.771  50.125
44149W        W36073  43.708  38.223  52.427
44150W        W36074  34.216  44.204  50.139
44151W        W36075   3.268   7.758  51.508
44152W        W36076  27.229  19.226  51.071
44153W        W36077  20.726   6.744  51.055
44154W        W36078  11.741  36.739  52.869
44155W        W36079  14.739   5.277  53.324
44156W        W36080  22.736  17.754  49.697
44157W        W36081  30.713  47.216  53.352
44158W        W36082  40.209  15.247  51.516
44159W        W36083  10.755  14.239  52.881
44160W        W36084  16.761  16.752  53.325
44161W        W36085   0.278  32.243  51.959
44162W        W36086  29.735  30.733  53.784
44163W        W36087   8.748  39.702  52.901
44164W        W36088  13.777  40.702  52.440
44165W        W36089  41.683  28.722  51.953
44166W        W36090   9.741  35.203  51.969
44167W        W36091  29.229  25.251  53.797
44168W        W36092  36.725   2.288  52.868
44169W        W36093  39.186  30.216  52.448
44170W        W36094  47.714  20.733  51.947
44171W        W36095  25.217  21.264  53.794
44172W        W36096   5.268  21.757  53.803
44173W        W36097  35.219   4.281  51.066
44174W        W36098   7.738  23.252  53.340
44175W        W36099  25.751  23.735  52.439
44176W        W36100  18.745   9.273  50.615
44177W        W36101  24.251  45.195  50.607
44178W        W36102  36.194  12.775  50.609
44179W        W36103   9.775  20.234  50.165
44180W        W36104  10.760  37.690  49.685
44181W        W36105  48.217   0.751  53.786
44182W        W36106  31.228  29.212  51.494
44183W        W36107   5.759  38.196  53.786
44184W        W36108  39.712   1.778  49.707
44185W        W36109  42.191  15.739  49.680
44186W        W36110  20.237  28.729  51.064
44187W        W36111   5.765   0.253  51.950
44188W        W36112  13.243  32.220  50.594
44189W        W36113  22.215  32.705  49.686
44190W        W36114   8.270  30.713  53.777
44191W        W36115  18.723   4.790  52.902
44192W        W36116  18.768  25.725  49.709
44193W        W36117  37.198  40.193  49.704
44194W        W36118  16.227  44.177  53.811
44195W        W36119  45.195  18.763  49.679
44196W        W36120  14.756   3.283  51.496
44197W        W36121  13.254  41.197  50.137
44198W        W36122   3.245  39.204  50.151
44199W        W36123   6.286   8.765  50.583
44200W        W36124  41.703  26.737  53.347
44201W        W36125  15.736  16.731  50.582
44202W        W36126   8.777  35.726  51.043
44203W        W36127   7.274  37.707  51.503
44204W        W36128  42.194  37.719  50.620
44205W        W36129  41.200  29.717  50.165
44206W        W36130  30.228   7.242  51.529
44207W        W36131  22.236  37.708  49.699
44208W        W36132  27.209  35.194  53.789
44209W        W36133  38.725  24.216  51.532
44210W        W36134  47.181  45.705  52.877
44211W        W36135   6.757  37.702  51.074
44212W        W36136  46.192  12.770  51.039
44213W        W36137  16.764  22.745  52.885
44214W        W36138  20.243  39.704  52.861
44215W        W36139  41.198  23.214  51.507
44216W        W36140  26.740  44.715  53.797
44217W        W36141  10.732  43.696  53.317
44218W        W36142  44.696  15.731  49.675
44219W        W36143  48.206  43.720  51.990
44220W        W36144  24.250   3.759  51.971
44221W        W36145  46.704  16.763  50.617
44222W        W36146  42.182  45.209  50.605
44223W        W36147  27.216  31.739  51.497
44224W        W36148  20.230   4.742  51.506
44225W        W36149  33.719  44.213  52.876
44226W        W36150  13.252  27.213  51.516
44227W        W36151  30.214  35.234  52.442
44228W        W36152  44.200   2.265  49.683
44229W        W36153   9.735  25.255  49.679
44230W        W36154  45.682  36.710  50.140
44231W        W36155   5.750  34.239  51.501
44232W        W36156  46.718  26.223  52.888
44233W        W36157  11.758  47.717  51.036
44234W        W36158  32.231  29.241  50.162
44235W        W36159  38.699  13.231  51.991
44236W        W36160  28.227   2.290  49.689
44237W        W36161  42.727  47.194  51.522
44238W        W36162  39.724  18.220  50.126
44239W        W36163  15.228  20.244  49.687
44240W        W36164  47.191  18.755  50.153
44241W        W36165  15.734  35.194  51.947
44242W        W36166   5.252  35.704  51.985
44243W        W36167  45.219  44.704  53.811
44244W        W36168  20.720  33.732  52.416
44245W        W36169  40.188  38.219  51.521
44246W        W36170  42.682  37.223  51.976
44247W        W36171  22.745  26.229  51.976
44248W        W36172  23.223  15.738  51.503
44249W        W36173  29.229  30.213  53.775
44250W        W36174  10.244  36.711  52.417
44251W        W36175   1.769  11.281  52.422
44252W        W36176  15.738   3.262  53.332
44253W        W36177  38.230   6.289  52.888
44254W        W36178   2.260  36.192  52.875
44255W        W36179  41.683  22.725  50.578
44256W        W36180  35.726   7.245  50.147
44257W        W36181  10.242   8.737  50.154
44258W        W36182   7.749  20.250  52.412
44259W        W36183  40.693   7.748  50.126
44260W        W36184  48.186  36.694  49.691
44261W        W36185  22.744  42.683  53.341
44262W        W36186  34.722  30.240  52.900
44263W        W36187  47.708  34.209  53.328
44264W        W36188  39.203   0.289  49.670
44265W        W36189  23.739  21.761  51.973
44266W        W36190  24.238   0.782  52.863
44267W        W36191  17.733   6.763  52.422
44268W        W36192   2.754  17.268  51.956
44269W        W36193   3.775  30.245  53.812
44270W        W36194  27.712   1.750  52.427
44271W        W36195  19.265  26.755  50.608
44272W        W36196  27.252  29.239  50.123
44273W        W36197  43.182  40.220  51.527
44274W        W36198  12.762   3.270  50.595
44275W        W36199  15.736  18.253  52.418
44276W        W36200  13.273  43.186  53.811
44277W        W36201   5.754   4.280  53.335
44278W        W36202  12.776  12.249  53.316
44279W        W36203  48.201  16.731  49.682
44280W        W36204  42.728   6.772  50.149
44281W        W36205  44.181  47.221  51.531
44282W        W36206   2.764  13.257  50.619
44283W        W36207  22.732  16.729  53.328
44284W        W36208  45.203  39.185  51.491
44285W        W36209   6.784  45.721  52.431
44286W        W36210  26.717   5.777  51.504
44287W        W36211  14.260   2.789  52.877
44288W        W36212  10.267   0.251  50.162
44289W        W36213  29.707  39.722  53.807
44290W        W36214  14.770  28.726  53.322
44291W        W36215  28.208  42.727  50.140
44292W        W36216  25.745  34.207  53.778
44293W        W36217   6.755  14.251  50.132
44294W        W36218  25.232  45.220  51.040
44295W        W36219  48.201  31.745  51.967
44296W        W36220   4.246  33.206  52.407
44297W        W36221  33.712   5.790  49.696
44298W        W36222  46.218  30.748  50.591
44299W        W36223  46.185  46.195  50.143
44300W        W36224  45.191  13.241  53.335
44301W        W36225   0.269  14.270  51.077
44302W        W36226  23.252  32.219  50.151
44303W        W36227  36.214  35.240  51.078
44304W        W36228  40.716  20.227  51.042
44305W        W36229   8.760  18.725  53.776
44306W        W36230  43.682  20.731  49.669
44307W        W36231  46.188  34.217  52.409
44308W        W36232  43.683  40.187  51.506
44309W        W36233  11.736  28.227  53.781
44310W        W36234  37.709  13.749  49.686
44311W        W36235  18.753  24.734  50.137
44312W        W36236  40.220  22.757  50.614
44313W        W36237  23.256  13.276  51.961
44314W        W36238   1.780  30.706  51.490
44315W        W36239  20.264   6.286  53.319
44316W        W36240  39.220   4.275  49.708
44317W        W36241  41.728  15.756  51.975
44318W        W36242  19.265  20.719  50.587
44319W        W36243  43.182   7.285  52.863
44320W        W36244  21.745  45.214  52.898
44321W        W36245  34.715  47.714  52.881
44322W        W36246  19.765   1.282  52.864
44323W        W36247  23.729   9.240  52.425
44324W        W36248  30.745  42.686  51.509
44325W        W36249  32.224  25.748  51.524
44326W        W36250  12.250  14.273  52.873
44327W        W36251   8.249  23.721  53.355
44328W        W36252   5.267  15.273  53.786
44329W        W36253  28.715  14.230  49.673
44330W        W36254  36.230  13.748  52.894
44331W        W36255  16.734  15.256  53.324
44332W        W36256  34.226  36.701  51.495
44333W        W36257  21.723  12.774  51.500
44334W        W36258  33.700  11.236  51.979
44335W        W36259  15.227  27.740  51.510
44336W        W36260   9.279  24.236  53.328
44337W        W36261  44.715   4.277  51.048
44338W        W36262  12.255  20.758  49.665
44339W        W36263   0.773  28.721  51.042
44340W        W36264  31.210  19.238  51.073
44341W        W36265  47.715  37.700  52.439
44342W        W36266  20.749  46.204  51.504
44343W        W36267  24.216  30.717  51.052
44344W        W36268   5.288  35.207  52.893
44345W        W36269  11.762   9.256  51.520
44346W        W36270  44.208  11.259  51.073
44347W        W36271   6.760  27.710  51.518
44348W        W36272   9.283   9.766  51.520
44349W        W36273  35.207  21.740  51.510
44350W        W36274  10.269  48.207  51.953
44351W        W36275  24.216  42.695  51.037
44352W        W36276  12.773  29.727  53.793
44353W        W36277  20.753  47.206  53.786
44354W        W36278   6.273  26.715  53.323
44355W        W36279  32.237  23.218  51.957
44356W        W36280  34.222  39.196  52.902
44357W        W36281  36.737  41.712  49.683
44358W        W36282  45.704  28.716  52.871
44359W        W36283  22.718  33.738  50.133
44360W        W36284   5.247  24.743  53.776
44361W        W36285  45.186  11.764  51.968
44362W        W36286  14.748  44.185  52.422
44363W        W36287   0.274  11.273  50.615
44364W        W36288  42.223  44.220  50.595
44365W        W36289  10.238   4.772  49.693
44366W        W36290   1.258  46.702  51.529
44367W        W36291  27.715  41.230  53.341
44368W        W36292  11.750  29.744  51.040
44369W        W36293  41.711  11.276  50.599
44370W        W36294  42.188  14.747  51.982
44371W        W36295  17.749  28.211  53.814
44372W        W36296  39.229   6.284  51.507
44373W        W36297  47.211  18.225  50.145
44374W        W36298  23.747   8.769  49.676
44375W        W36299  29.707   4.287  49.680
44376W        W36300  25.709  32.707  51.525
44377W        W36301  32.225  17.770  51.971
44378W        W36302  43.725  46.223  49.702
44379W        W36303  37.692  36.726  51.502
44380W        W36304   7.274   8.262  51.051
44381W        W36305  43.189  39.712  51.065
44382W        W36306   1.776  10.253  51.956
44383W        W36307  35.217   2.766  51.045
44384W        W36308  17.228  30.240  51.504
44385W        W36309  30.722  40.695  49.697
44386W        W36310  25.711  39.703  51.535
44387W        W36311  20.743  13.261  52.893
44388W        W36312  37.700  19.221  53.330
44389W        W36313   7.253  27.243  53.349
44390W        W36314   2.268  44.205  51.980
44391W        W36315  14.750  30.718  51.534
44392W        W36316  23.722  29.709  53.351
44393W        W36317  23.227  24.218  51.953
44394W        W36318  24.753  23.760  53.797
44395W        W36319  43.680  34.736  51.073
44396W        W36320  29.722   2.274  51.952
44397W        W36321  28.247  18.238  51.971
44398W        W36322   4.774   3.275  50.144
44399W        W36323  35.715   8.285  51.066
44400W        W36324   9.745  10.761  51.078
44401W        W36325  22.749  42.226  49.665
44402W        W36326  19.732   9.267  51.078
44403W        W36327  24.253   9.257  50.131
44404W        W36328  31.216   7.287  53.352
44405W        W36329   8.782   6.775  50.601
44406W        W36330   1.776   5.279  49.681
44407W        W36331  11.247  21.738  50.610
44408W        W36332   8.772  33.196  51.071
44409W        W36333  42.685  26.235  51.529
44410W        W36334  10.772  31.227  51.520
44411W        W36335  35.699  13.741  51.964
44412W        W36336  43.191  45.223  51.510
44413W        W36337  44.224   9.263  51.968
44414W        W36338  35.234   3.760  50.617
44415W        W36339  25.246   7.759  51.057
44416W        W36340  27.225  40.188  51.525
44417W        W36341  30.722  43.714  51.062
44418W        W36342  32.724  45.201  51.493
44419W        W36343  27.227  46.194  52.430
44420W        W36344  24.743  35.215  50.164
44421W        W36345   5.252  18.723  50.129
44422W        W36346  17.725  41.690  51.530
44423W        W36347  27.709   4.279  52.414
44424W        W36348   5.280  39.200  52.413
44425W        W36349  18.733   5.768  50.164
44426W        W36350  17.264  13.759  50.159
44427W        W36351  44.702   8.783  53.789
44428W        W36352  23.258   8.282  52.445
44429W        W36353  41.196   3.777  51.966
44430W        W36354  40.711  27.230  53.803
44431W        W36355  17.255  30.230  50.153
44432W        W36356   9.767  27.252  53.806
44433W        W36357   7.256  35.698  52.894
44434W        W36358   4.750   5.275  52.437
44435W        W36359  32.205  46.200  51.495
44436W        W36360   3.291   8.779  53.801
44437W        W36361  45.199  20.235  53.339
44438W        W36362  36.731  16.747  51.058
44439W        W36363  22.746   3.284  52.429
44440W        W36364   4.775  14.266  53.321
44441W        W36365  23.252   3.772  51.528
44442W        W36366   0.255  45.195  50.606
44443W        W36367  20.241   9.774  52.403
44444W        W36368  17.742  31.241  50.590
44445W        W36369  20.755   6.754  52.904
44446W        W36370  10.253  30.712  51.509
44447W        W36371   9.280  33.234  50.588
44448W        W36372  24.746  35.232  53.327
44449W        W36373  31.243  31.722  51.073
44450W        W36374  16.250  12.750  53.803
44451W        W36375  48.219  39.696  50.587
44452W        W36376  45.723  28.726  51.961
44453W        W36377  17.735   7.741  51.982
44454W        W36378  10.272   8.750  49.678
44455W        W36379  32.739  44.195  51.530
44456W        W36380  37.713  35.239  53.785
44457W        W36381   7.758  44.178  50.599
44458W        W36382   2.769  44.710  52.864
44459W        W36383  18.225  33.741  50.604
44460W        W36384  23.745  16.767  51.978
44461W        W36385   7.283  36.701  51.973
44462W        W36386  43.704  45.192  52.448
44463W        W36387  45.677  35.740  52.410
44464W        W36388  43.695  21.223  49.674
44465W        W36389  33.716  28.706  51.069
44466W        W36390  14.747  35.198  50.606
44467W        W36391  35.229  40.708  50.608
44468W        W36392  42.705  18.242  49.709
44469W        W36393   3.786  17.738  53.796
44470W        W36394   8.772  18.726  52.890
44471W        W36395  31.720  28.226  51.495
44472W        W36396   8.773  22.747  51.041
44473W        W36397  45.703  30.216  50.162
44474W        W36398  17.239  43.688  49.696
44475W        W36399  29.711  16.262  50.586
44476W        W36400  22.748  48.182  50.596
44477W        W36401  15.733   8.237  50.622
44478W        W36402  39.709  43.182  49.672
44479W        W36403  46.208   3.754  53.346
44480W        W36404  25.717   6.267  52.869
44481W        W36405  47.688  28.222  53.341
44482W        W36406  43.227  30.238  50.153
44483W        W36407   6.763  33.227  52.404
44484W        W36408  29.707  38.698  49.694
44485W        W36409  39.710  30.727  49.668
44486W        W36410  14.239  18.768  52.416
44487W        W36411  47.180  38.698  53.323
44488W        W36412   5.283  24.218  52.405
44489W        W36413  25.237   0.286  52.408
44490W        W36414  47.204  35.700  50.589
44491W        W36415  47.194  41.209  52.900
44492W        W36416  48.178  27.240  51.968
44493W        W36417   3.257  14.732  52.875
44494W        W36418   9.281  28.215  49.705
44495W        W36419  14.765  17.257  50.129
44496W        W36420  16.726  39.211  50.154
44497W        W36421  33.735  14.239  51.508
44498W        W36422  10.764  11.275  50.605
44499W        W36423   7.770   5.760  52.877
44500W        W36424   8.763  16.771  51.064
44501W        W36425  11.748  33.719  51.496
44502W        W36426   8.258   0.758  51.988
44503W        W36427  23.214   8.279  53.784
44504W        W36428  37.693   3.779  52.900
44505W        W36429  48.205  12.759  52.427
44506W        W36430   1.278  34.727  51.062
44507W        W36431  11.780  46.718  53.792
44508W        W36432  30.708   6.250  51.498
44509W        W36433  24.221  15.239  51.967
44510W        W36434  45.678  45.709  52.405
44511W        W36435  37.714  46.205  53.796
44512W        W36436  32.213  19.261  51.949
44513W        W36437  39.234  48.171  52.432
44514W        W36438  37.688  44.198  53.797
44515W        W36439  29.731   9.744  53.345
44516W        W36440  42.681  34.239  50.139
44517W        W36441  16.762   5.749  50.592
44518W        W36442  43.216  21.238  49.684
44519W        W36443   9.266  37.709  49.675
44520W        W36444  48.174  44.214  51.953
44521W        W36445   8.252  34.728  49.677
44522W        W36446   2.748  29.721  50.612
44523W        W36447  38.701  12.271  50.598
44524W        W36448  22.226  31.702  49.666
44525W        W36449  14.774  45.217  49.673
44526W        W36450  13.244  36.715  50.143
44527W        W36451  23.213  29.736  52.904
44528W        W36452  16.256  22.718  52.888
44529W        W36453  19.224  29.748  50.163
44530W        W36454   0.259   1.791  50.616
44531W        W36455  30.210  44.726  53.337
44532W        W36456  25.252  19.261  50.145
44533W        W36457   2.270  46.706  52.880
44534W        W36458  34.707  39.225  52.891
44535W        W36459  21.255  39.194  53.776
44536W        W36460  38.201   1.793  52.444
44537W        W36461  11.268  31.210  50.578
44538W        W36462   6.276  29.735  51.964
44539W        W36463  11.732   5.264  53.326
44540W        W36464  31.246  26.722  52.877
44541W        W36465  45.690   1.750  51.510
44542W        W36466   5.762  35.204  51.528
44543W        W36467  23.711   1.761  52.890
44544W        W36468  16.734  42.225  53.358
44545W        W36469  32.724  35.226  51.977
44546W        W36470  35.701  18.238  51.076
44547W        W36471  15.251  33.728  52.872
44548W        W36472   2.775  38.197  49.674
44549W        W36473  11.778   3.777  52.860
44550W        W36474  39.709  46.717  50.592
44551W        W36475  13.770  25.711  53.794
44552W        W36476  45.216  21.248  51.973
44553W        W36477  40.703   9.737  50.582
44554W        W36478  28.243  46.202  53.329
44555W        W36479  27.240  43.683  52.447
44556W        W36480  13.245   9.258  51.515
44557W        W36481  39.726   2.290  51.057
44558W        W36482  18.226  10.267  50.580
44559W        W36483  27.750  13.243  51.523
44560W        W36484  37.237  34.198  53.332
44561W        W36485  20.734  24.752  53.814
44562W        W36486  15.259  10.747  51.524
44563W        W36487  16.272  37.224  53.810
44564W        W36488  16.726  19.225  53.321
44565W        W36489  28.239  41.221  53.812
44566W        W36490  11.280  10.775  52.867
44567W        W36491  45.675  10.268  52.872
44568W        W36492  16.766   5.252  51.036
44569W        W36493  14.756  42.215  53.324
44570W        W36494   4.277  10.745  50.124
44571W        W36495   4.782  43.185  50.613
44572W        W36496   9.752  45.705  53.804
44573W        W36497   3.251  19.263  51.978
44574W        W36498  23.754   7.244  51.521
44575W        W36499  28.232   8.741  53.338
44576W        W36500  11.735  20.745  49.692
44577W        W36501   4.762  16.260  50.149
44578W        W36502   8.737  25.228  53.342
44579W        W36503   6.762  29.225  52.869
44580W        W36504  30.721  41.201  52.443
44581W        W36505  39.187  29.245  53.801
44582W        W36506  33.738  17.238  52.881
44583W        W36507  44.719  24.728  51.956
44584W        W36508  42.200  25.223  52.446
44585W        W36509  14.771  26.245  53.815
44586W        W36510  37.719   0.255  51.050
44587W        W36511  33.700  39.715  51.523
44588W        W36512  19.758  23.731  50.581
44589W        W36513  36.223  43.194  52.416
44590W        W36514   4.773  33.724  52.875
44591W        W36515  36.225  42.216  52.406
44592W        W36516   2.270   3.787  50.133
44593W        W36517  24.731   3.269  53.361
44594W        W36518  40.191  45.695  49.690
44595W        W36519   2.795  24.259  51.045
44596W        W36520   7.281  22.756  51.054
44597W        W36521   5.260  36.209  53.330
44598W        W36522  10.244   1.780  50.153
44599W        W36523  19.233  19.266  51.494
44600W        W36524  18.748  26.221  53.816
44601W        W36525  27.216  48.218  49.700
44602W        W36526  41.217  29.204  50.141
44603W        W36527  38.221  22.753  52.868
44604W        W36528  33.237  19.739  51.504
44605W        W36529  35.695  11.251  50.165
44606W        W36530   2.788  20.750  52.903
44607W        W36531  28.249  31.705  53.794
44608W        W36532  41.219  43.680  53.796
44609W        W36533  37.715  14.763  50.585
44610W        W36534  36.203  35.733  51.991
44611W        W36535  27.711  22.739  49.683
44612W        W36536  13.730  24.248  50.586
44613W        W36537  17.254  24.754  51.077
44614W        W36538  39.188  22.235  52.436
44615W        W36539  48.189   3.280  51.068
44616W        W36540   6.761  28.752  51.526
44617W        W36541  25.715  42.717  50.582
44618W        W36542   5.778  30.738  51.948
44619W        W36543  33.202  32.732  53.780
44620W        W36544   9.777   2.762  53.329
44621W        W36545  28.745   7.239  51.035
44622W        W36546  29.710  28.741  53.343
44623W        W36547  10.737  41.698  50.612
44624W        W36548  17.257  20.745  49.675
44625W        W36549  41.686   4.264  51.500
44626W        W36550  33.726  42.701  51.078
44627W        W36551  15.232   7.280  51.042
44628W        W36552  14.230  27.209  52.864
44629W        W36553  20.741  14.251  50.159
44630W        W36554  30.747  22.251  49.680
44631W        W36555  22.717  42.214  50.154
44632W        W36556  38.198  20.252  51.947
44633W        W36557  12.731  32.708  53.343
44634W        W36558   9.273  14.244  50.586
44635W        W36559  40.686  42.711  51.076
44636W        W36560  43.699  21.254  53.786
44637W        W36561  13.768  42.729  52.425
44638W        W36562  10.261  29.716  51.075
44639W        W36563  43.180  47.191  53.352
44640W        W36564  22.753  18.725  51.984
44641W        W36565  35.704  21.752  50.147
44642W        W36566  18.265  42.696  50.596
44643W        W36567  43.186  29.727  49.676
44644W        W36568  27.205  47.195  52.879
44645W        W36569  12.266  42.714  49.675
44646W        W36570  29.728   6.786  53.359
44647W        W36571  39.724  46.216  53.330
44648W        W36572  47.212  31.740  49.665
44649W        W36573  22.713  46.678  52.409
44650W        W36574   3.273  14.748  50.593
44651W        W36575  22.749   1.767  51.069
44652W        W36576  41.219  25.252  49.691
44653W        W36577  30.710   9.779  51.521
44654W        W36578  29.215  17.238  52.859
44655W        W36579  19.226  14.227  53.808
44656W        W36580  48.202   9.753  51.069
44657W        W36581  19.723   7.255  53.347
44658W        W36582  24.736  27.214  53.779
44659W        W36583  43.207  36.734  52.872
44660W        W36584  21.734  47.217  52.875
44661W        W36585   9.761  45.203  51.517
44662W        W36586  33.704   2.277  50.598
44663W        W36587  45.193  38.698  51.982
44664W        W36588   0.257  13.276  50.143
44665W        W36589  15.273  12.268  51.512
44666W        W36590  44.207  26.238  52.890
44667W        W36591  43.714  20.754  52.422
44668W        W36592  14.228  29.248  53.814
44669W        W36593  36.717   0.280  53.337
44670W        W36594  35.734  27.705  50.604
44671W        W36595  34.222   8.755  51.504
44672W        W36596   0.290  40.719  51.035
44673W        W36597  17.754  45.699  53.342
44674W        W36598  38.226  42.214  50.588
44675W        W36599  46.689  44.708  51.519
44676W        W36600  44.193  44.206  51.513
44677W        W36601  44.718  12.279  52.436
44678W        W36602   0.763  39.220  51.518
44679W        W36603  11.755   2.256  53.344
44680W        W36604  15.272  36.222  52.429
44681W        W36605  39.717  15.272  51.991
44682W        W36606   3.271  35.201  50.606
44683W        W36607  13.256  17.767  53.323
44684W        W36608  36.711  30.722  50.599
44685W        W36609  22.214   9.273  52.416
44686W        W36610  13.768  17.245  53.800
44687W        W36611  40.196  28.220  51.515
44688W        W36612  30.711   2.769  53.817
44689W        W36613  25.715  29.720  51.063
44690W        W36614   9.275  30.711  51.518
44691W        W36615   9.762  29.741  52.429
44692W        W36616  42.708  45.199  53.326
44693W        W36617  16.250  18.235  52.418
44694W        W36618  42.714  35.201  53.788
44695W        W36619   9.742   3.753  53.774
44696W        W36620  30.747  11.779  51.971
44697W        W36621  23.729  11.754  52.429
44698W        W36622  42.705  14.773  51.044
44699W        W36623   6.257  44.703  51.507
44700W        W36624   4.745  36.735  51.961
44701W        W36625  36.704  41.712  51.078
44702W        W36626  12.231  19.739  52.884
44703W        W36627  18.752  17.225  53.354
44704W        W36628  20.243  28.238  53.360
44705W        W36629  15.766  36.721  53.355
44706W        W36630   2.757  35.223  52.881
44707W        W36631  34.223  42.221  50.620
44708W        W36632  27.242   7.274  52.416
44709W        W36633  46.185  27.208  52.900
44710W        W36634  21.250  15.269  52.904
44711W        W36635  21.746  36.198  51.528
44712W        W36636  14.764   9.746  52.891
44713W        W36637  15.247  28.704  50.154
44714W        W36638  37.233  15.267  51.955
44715W        W36639   5.255  23.735  50.123
44716W        W36640  34.199  10.257  53.317
44717W        W36641  37.688   4.276  53.804
44718W        W36642  42.728  42.200  53.359
44719W        W36643  25.240   6.248  50.125
44720W        W36644  39.228  19.240  52.407
44721W        W36645  18.723   1.774  51.055
44722W        W36646   9.772  21.265  53.780
44723W        W36647  16.236  43.217  51.494
44724W        W36648  36.697  19.730  50.126
44725W        W36649  11.764   2.266  51.979
44726W        W36650  18.738  38.710  50.615
44727W        W36651  36.196  47.679  51.507
44728W        W36652   4.760  37.237  51.034
44729W        W36653  24.218  12.254  50.581
44730W        W36654  17.265  39.219  49.673
44731W        W36655  14.759  36.228  50.158
44732W        W36656  38.714  45.203  50.585
44733W        W36657  36.706  32.740  53.341
44734W        W36658  45.679  23.242  52.888
44735W        W36659  13.233  23.727  53.780
44736W        W36660  40.712  34.225  49.676
44737W        W36661   9.752  21.758  52.901
44738W        W36662   0.783   4.782  49.691
44739W        W36663  19.228  25.231  50.609
44740W        W36664  44.719   3.745  51.064
44741W        W36665  20.761  36.226  49.708
44742W        W36666  39.219  20.246  51.069
44743W        W36667   9.782  48.190  51.053
44744W        W36668   6.764  38.207  52.902
44745W        W36669  23.217  19.736  51.963
44746W        W36670  36.230  25.234  51.986
44747W        W36671  29.723   7.258  53.814
44748W        W36672   5.785  11.753  50.125
44749W        W36673  18.234  31.207  52.878
44750W        W36674  44.714  28.705  50.582
44751W        W36675  14.771  18.249  53.777
44752W        W36676  34.732  46.185  53.320
44753W        W36677  39.733  21.222  50.582
44754W        W36678  23.749  17.254  50.610
44755W        W36679  35.719  45.721  53.320
44756W        W36680  11.762   4.758  51.983
44757W        W36681  23.258  43.692  50.606
44758W        W36682   5.773  20.266  50.586
44759W        W36683  19.251   2.770  51.071
44760W        W36684  46.194  24.753  50.583
44761W        W36685  33.725   1.782  51.947
44762W        W36686  44.224  43.707  51.523
44763W        W36687  36.224  14.247  51.076
44764W        W36688  20.251   1.282  53.813
44765W        W36689  41.207  12.762  51.980
44766W        W36690  28.227  25.755  52.420
44767W        W36691  25.250  28.716  53.788
44768W        W36692   6.776  20.741  51.044
44769W        W36693  16.723  34.231  49.684
44770W        W36694  16.762  40.687  51.969
44771W        W36695  25.218  27.721  50.590
44772W        W36696  10.772  17.762  52.423
44773W        W36697  47.708  47.177  51.494
44774W        W36698   2.292   2.296  53.329
44775W        W36699   7.267  43.684  52.872
44776W        W36700  30.235  42.720  50.136
44777W        W36701  42.209  41.684  53.785
44778W        W36702  39.733   8.768  51.974
44779W        W36703  37.732  29.221  51.512
44780W        W36704  45.200   3.776  52.446
44781W        W36705  28.206  14.759  51.959
44782W        W36706  10.771  17.729  49.681
44783W        W36707  37.222  21.250  51.528
44784W        W36708  14.231   4.282  53.350
44785W        W36709  37.707  11.770  50.137
44786W        W36710   2.293  18.243  52.442
44787W        W36711  31.226  14.264  53.782
44788W        W36712   2.293  13.253  49.685
44789W        W36713  34.713  12.756  52.864
44790W        W36714   5.261  37.690  52.900
44791W        W36715  33.225   4.772  53.349
44792W        W36716   0.263  43.685  50.611
44793W        W36717  36.234  15.261  52.424
44794W        W36718  18.735  44.713  50.140
44795W        W36719  18.237   7.282  51.042
44796W        W36720  22.740  35.219  51.958
44797W        W36721   3.277  24.227  51.947
44798W        W36722   1.273  47.701  53.355
44799W        W36723  43.200  17.236  51.076
44800W        W36724   4.265   3.782  51.967
44801W        W36725  13.278   0.252  51.500
44802W        W36726   1.759  24.714  51.982
44803W        W36727  31.218   7.748  51.948
44804W        W36728  31.218  17.755  52.408
44805W        W36729  17.240  27.221  53.330
44806W        W36730  21.760  33.699  51.529
44807W        W36731   4.763  20.221  52.409
44808W        W36732  38.687  32.206  49.664
44809W        W36733  40.196   6.772  49.700
44810W        W36734  42.211  36.203  51.529
44811W        W36735  10.769  30.722  50.164
44812W        W36736  16.254  15.274  51.038
44813W        W36737  17.731  23.227  53.816
44814W        W36738  46.195  25.255  50.154
44815W        W36739  10.254  35.711  51.987
44816W        W36740  22.222  42.221  51.970
44817W        W36741  42.226   2.777  53.811
44818W        W36742  47.683   4.743  52.866
44819W        W36743  29.250  37.231  51.034
44820W        W36744  30.210   8.739  51.502
44821W        W36745   3.746  32.701  51.984
44822W        W36746  34.728   2.758  51.506
44823W        W36747  20.739  39.198  50.130
44824W        W36748  36.228  36.715  50.125
44825W        W36749  13.236  12.256  51.057
44826W        W36750  45.201   2.264  52.888
44827W        W36751  27.235  44.180  52.883
44828W        W36752  19.752   3.258  53.328
44829W        W36753  40.712  44.726  49.681
44830W        W36754  15.774   4.756  50.600
44831W        W36755  36.204   4.284  51.969
44832W        W36756  17.233   3.772  50.150
44833W        W36757  18.238  45.700  50.124
44834W        W36758  20.232  42.218  52.410
44835W        W36759  14.772  29.702  50.604
44836W        W36760  10.272  12.231  53.788
44837W        W36761  17.253  40.727  51.050
44838W        W36762  40.202  44.190  53.324
44839W        W36763  31.204  18.745  52.873
44840W        W36764  39.232  19.252  50.607
44841W        W36765   4.288  14.731  51.950
44842W        W36766   2.257  25.723  52.437
44843W        W36767   6.281   8.283  53.782
44844W        W36768  48.213  12.755  50.585
44845W        W36769  28.253  40.195  52.863
44846W        W36770  48.201   4.749  51.505
44847W        W36771  15.255  29.702  51.517
44848W        W36772   1.768  42.226  51.977
44849W        W36773  37.691  45.699  49.701
44850W        W36774  36.717   2.277  51.061
44851W        W36775   4.261  29.720  50.590
44852W        W36776  24.230  39.712  50.124
44853W        W36777  27.722   1.276  53.813
44854W        W36778  14.775  41.212  53.320
44855W        W36779  23.729  45.211  53.804
44856W        W36780  30.250  33.230  49.706
44857W        W36781  33.737  23.238  50.584
44858W        W36782  47.188  18.225  51.499
44859W        W36783  32.229  27.710  51.976
44860W        W36784   3.790  37.714  50.583
44861W        W36785  13.758   8.252  51.520
44862W        W36786   1.266  21.217  52.897
44863W        W36787  39.226  27.223  53.356
44864W        W36788   3.763  36.693  52.443
44865W        W36789  31.223   9.246  50.602
44866W        W36790  47.718  23.238  53.804
44867W        W36791  14.761  32.739  52.885
44868W        W36792  19.740  21.265  51.065
44869W        W36793   3.785   5.749  52.440
44870W        W36794  11.774  13.248  52.904
44871W        W36795  37.730  10.756  51.508
44872W        W36796  11.244  18.222  51.963
44873W        W36797   9.769  20.249  51.969
44874W        W36798  31.718  41.728  50.599
44875W        W36799  41.191  27.240  53.352
44876W        W36800  14.233  23.241  51.992
44877W        W36801  45.693  19.263  53.340
44878W        W36802  42.729  17.727  50.594
44879W        W36803  23.721   8.743  50.606
44880W        W36804  34.225  22.227  50.612
44881W        W36805   9.774  12.245  53.806
44882W        W36806  24.230  24.235  51.042
44883W        W36807   2.776  17.734  51.955
44884W        W36808   2.788  46.211  49.704
44885W        W36809  23.719  18.239  53.321
44886W        W36810  39.713  34.728  53.332
44887W        W36811  24.757  13.765  51.526
44888W        W36812  23.736  25.711  50.156
44889W        W36813  48.179   8.263  51.519
44890W        W36814  24.749   9.777  51.535
44891W        W36815  22.750  26.240  51.070
44892W        W36816  46.201   1.756  52.442
44893W        W36817  48.201  31.216  53.798
44894W        W36818  42.228  26.208  51.954
44895W        W36819  19.731   5.250  52.904
44896W        W36820  15.726  37.732  49.690
44897W        W36821  34.733  13.269  52.885
44898W        W36822  33.712  31.226  51.963
44899W        W36823   5.767  35.707  51.951
44900W        W36824  42.225  18.221  50.593
44901W        W36825  21.252  18.728  49.697
44902W        W36826  24.216  14.237  51.526
44903W        W36827   2.781   1.255  50.610
44904W        W36828  24.711   5.261  49.667
44905W        W36829  28.723  25.255  51.960
44906W        W36830  33.196   9.279  51.513
44907W        W36831  26.223  39.218  49.702
44908W        W36832  15.246   0.269  51.977
44909W        W36833  42.711  35.725  49.692
44910W        W36834  44.198  19.719  50.599
44911W        W36835  17.754  15.748  51.067
44912W        W36836  40.702  37.712  49.699
44913W        W36837  15.747  40.205  53.348
44914W        W36838   5.250   6.247  52.861
44915W        W36839  43.711  16.226  51.076
44916W        W36840  21.264   0.769  52.867
44917W        W36841  23.720   7.740  51.510
44918W        W36842  13.732  38.698  49.676
44919W        W36843   3.763  31.705  52.884
44920W        W36844  26.744  12.261  51.504
44921W        W36845  38.231  39.703  49.702
44922W        W36846  16.260  22.215  50.617
44923W        W36847  30.734  32.726  53.792
44924W        W36848  45.211  36.207  51.057
44925W        W36849  42.713  20.763  50.149
44926W        W36850   5.286  36.718  50.123
44927W        W36851  44.721  45.180  52.883
44928W        W36852  16.235   6.770  52.876
44929W        W36853   8.262  45.715  49.701
44930W        W36854   7.746  18.260  50.580
44931W        W36855  25.252  40.715  50.152
44932W        W36856   8.736  28.243  50.155
44933W        W36857   2.768  33.730  51.497
44934W        W36858   1.792  46.194  50.151
44935W        W36859  17.244   9.769  52.860
44936W        W36860   4.788   0.754  50.143
44937W        W36861  47.184  46.221  52.882
44938W        W36862   3.264  24.742  49.692
44939W        W36863  47.679  14.762  52.427
44940W        W36864  18.242   3.779  53.340
44941W        W36865  45.177  47.712  52.880
44942W        W36866  17.256   9.778  51.068
44943W        W36867  42.695  43.681  52.441
44944W        W36868  39.203  26.212  52.409
44945W        W36869  10.755  12.266  53.803
44946W        W36870  23.238  47.179  49.669
44947W        W36871  35.721  43.719  50.132
44948W        W36872   1.260   5.267  52.427
44949W        W36873  30.732  27.743  51.512
44950W        W36874  46.191  41.186  50.596
44951W        W36875   8.240  31.225  51.058
44952W        W36876  40.705  16.230  50.154
44953W        W36877  31.214  43.683  49.679
44954W        W36878  40.199  14.236  50.622
44955W        W36879  35.235  37.211  53.321
44956W        W36880  37.236  28.230  53.799
44957W        W36881  14.227  25.225  50.158
44958W        W36882  11.246  30.205  51.034
44959W        W36883   8.276  22.748  51.975
44960W        W36884  47.709  45.708  53.347
44961W        W36885  36.205  15.260  50.142
44962W        W36886  10.269  16.742  50.161
44963W        W36887  44.216  31.228  53.810
44964W        W36888  21.258  23.242  53.815
44965W        W36889  46.717  18.732  53.356
44966W        W36890  45.676  19.738  52.429
44967W        W36891  17.241   2.788  51.069
44968W        W36892  34.698  15.253  51.978
44969W        W36893   4.782  16.739  51.986
44970W        W36894  21.760   5.748  51.961
44971W        W36895  41.215  13.260  51.962
44972W        W36896   0.780  28.236  51.505
44973W        W36897  21.254  28.223  53.320
44974W        W36898  36.194  43.182  49.694
44975W        W36899  29.206  42.728  49.703
44976W        W36900   6.777  47.195  52.897
44977W        W36901  12.731  45.212  53.348
44978W        W36902  17.257  26.227  50.602
44979W        W36903  46.183  13.231  53.803
44980W        W36904  35.241  24.227  51.070
44981W        W36905  31.733  39.212  52.895
44982W        W36906  39.188  16.265  52.414
44983W        W36907  16.730  40.711  49.708
44984W        W36908  46.220  44.224  53.325
44985W        W36909  32.704  27.214  52.445
44986W        W36910  39.210  24.728  53.814
44987W        W36911  19.268   0.789  51.067
44988W        W36912   9.770  45.190  51.975
44989W        W36913  29.214  15.744  52.878
44990W        W36914  44.219  22.255  50.150
44991W        W36915   6.286   6.257  50.142
44992W        W36916  10.746  27.214  49.703
44993W        W36917   9.257  20.243  53.801
44994W        W36918  46.214  35.192  50.588
44995W        W36919  42.712  14.238  52.890
44996W        W36920  32.215   8.758  49.704
44997W        W36921  45.218  25.255  50.593
44998W        W36922  26.253  33.240  51.989
44999W        W36923  14.768  11.270  50.152
45000W        W36924  20.754  20.722  52.428
45001W        W36925  36.203  26.225  53.325
45002W        W36926  18.734  26.250  50.139
45003W        W36927   5.778  37.217  52.442
45004W        W36928  46.180   0.256  53.324
45005W        W36929  29.212  14.734  52.443
45006W        W36930  40.689  33.706  52.889
45007W        W36931  25.748  28.243  53.340
45008W        W36932  10.268   9.743  53.329
45009W        W36933  23.220  10.235  49.666
45010W        W36934  25.217  46.695  51.057
45011W        W36935  19.723  48.187  51.988
45012W        W36936  30.228  35.194  53.359
45013W        W36937  23.724  32.725  53.351
45014W        W36938   0.766  41.707  51.530
45015W        W36939  10.774  17.265  53.327
45016W        W36940  32.702  33.721  53.813
45017W        W36941   6.251  31.230  51.513
45018W        W36942   7.787  31.730  50.600
45019W        W36943  12.754   8.771  53.348
45020W        W36944  45.704  22.760  50.126
45021W        W36945   6.754  46.711  51.979
45022W        W36946  26.232  11.756  50.166
45023W        W36947  48.197  31.224  50.130
45024W        W36948  33.712  23.213  51.497
45025W        W36949  45.202  15.745  51.036
45026W        W36950  44.179  22.719  51.506
45027W        W36951  44.681  17.233  49.677
45028W        W36952   1.279  16.225  51.969
45029W        W36953  46.675   2.769  50.161
45030W        W36954  12.239  30.727  51.979
45031W        W36955  24.242  37.207  50.621
45032W        W36956  31.230  27.710  53.776
45033W        W36957  39.691  42.710  53.790
45034W        W36958  30.238  11.755  52.877
45035W        W36959  27.725  31.737  51.056
45036W        W36960  17.255  31.233  51.059
45037W        W36961  12.752  33.699  49.696
45038W        W36962  13.251  47.220  50.135
45039W        W36963  11.244   4.274  50.133
45040W        W36964  22.744  23.220  51.947
45041W        W36965  20.720  25.729  51.964
45042W        W36966  24.235  47.706  52.877
45043W        W36967  43.683   7.756  49.702
45044W        W36968  38.702  36.227  50.153
45045W        W36969  16.763  19.268  52.871
45046W        W36970   4.751  30.246  52.871
45047W        W36971  33.199   5.256  52.873
45048W        W36972  24.716  19.264  51.981
45049W        W36973  33.703  42.185  52.442
45050W        W36974  40.721  15.236  50.138
45051W        W36975   3.268  43.721  53.354
45052W        W36976  30.232  43.181  52.440
45053W        W36977   4.787  42.684  51.982
45054W        W36978  41.699   5.760  50.582
45055W        W36979  22.741  18.247  50.613
45056W        W36980   6.284  33.201  52.432
45057W        W36981   0.270  17.732  49.706
45058W        W36982  23.218  11.752  50.579
45059W        W36983  43.224  40.694  53.792
45060W        W36984  38.187  26.230  51.495
45061W        W36985   1.752  37.237  51.077
45062W        W36986  31.244  13.737  53.347
45063W        W36987   0.261  18.740  50.620
45064W        W36988  47.173  22.261  49.671
45065W        W36989  42.704   4.260  51.514
45066W        W36990   0.266  21.251  51.050
45067W        W36991  43.705  30.715  50.147
45068W        W36992   6.281  23.256  52.417
45069W        W36993  16.724  48.218  50.129
45070W        W36994   3.291  24.239  52.439
45071W        W36995  23.250  47.201  51.978
45072W        W36996  20.760  30.236  53.344
45073W        W36997  12.259  30.218  52.428
45074W        W36998  43.687  20.251  51.038
45075W        W36999  46.680  46.175  51.059
45076W        W37000   2.756  37.737  49.674
45077W        W37001  35.738  36.725  51.055
45078W        W37002  36.703  16.239  53.356
45079W        W37003  22.239  18.740  51.958
45080W        W37004  37.700  31.228  50.121
45081W        W37005  35.222   4.782  53.806
45082W        W37006  16.250  20.239  52.442
45083W        W37007  37.205  35.728  52.407
45084W        W37008  10.263   8.263  52.903
45085W        W37009  37.724  27.224  50.136
45086W        W37010   5.758  45.703  51.498
45087W        W37011  19.240  13.772  51.969
45088W        W37012  40.700  12.739  52.872
45089W        W37013  40.192  33.734  50.122
45090W        W37014  20.246   2.757  52.902
45091W        W37015   3.250  38.697  50.135
45092W        W37016  15.267   7.742  51.517
45093W        W37017  41.191  22.221  52.423
45094W        W37018  43.726  12.238  53.807
45095W        W37019  44.708  42.223  53.318
45096W        W37020  19.732  22.737  52.440
45097W        W37021   5.781   0.263  53.318
45098W        W37022  18.221  28.240  49.696
45099W        W37023  25.734   2.763  51.949
45100W        W37024  15.724   6.752  49.670
45101W        W37025   6.773   1.276  51.036
45102W        W37026  47.703  10.739  49.708
45103W        W37027  36.214  14.769  52.417
45104W        W37028  41.724  19.248  49.678
45105W        W37029  33.215  18.220  50.148
45106W        W37030   8.740   3.257  52.867
45107W        W37031  27.751  35.213  51.524
45108W        W37032  39.724  23.247  53.346
45109W        W37033   2.760  48.178  53.778
45110W        W37034   0.291  38.736  52.409
45111W        W37035  29.239   2.246  50.586
45112W        W37036  30.727  44.204  53.325
45113W        W37037  22.250  18.727  51.073
45114W        W37038  11.235   0.760  52.431
45115W        W37039  40.721   2.760  50.125
45116W        W37040  36.232  42.219  51.965
45117W        W37041  10.774  34.194  50.141
45118W        W37042  32.209   3.294  52.869
45119W        W37043  38.229  12.736  49.685
45120W        W37044   9.241  11.262  51.054
45121W        W37045   6.754  47.708  53.779
45122W        W37046  13.251  38.693  51.044
45123W        W37047  47.689  14.729  51.492
45124W        W37048  44.191   7.748  53.338
45125W        W37049  35.705   0.298  50.619
45126W        W37050  20.264  37.224  50.589
45127W        W37051  41.705  47.701  52.870
45128W        W37052  14.745  22.721  52.880
45129W        W37053  39.229  11.735  51.965
45130W        W37054  36.710  47.188  50.584
45131W        W37055  46.684  21.748  52.890
45132W        W37056   6.270  18.730  51.068
45133W        W37057  36.210  29.223  51.985
45134W        W37058  30.212  12.737  53.319
45135W        W37059  48.186   1.262  50.145
45136W        W37060  12.252  25.731  52.862
45137W        W37061   8.772  26.250  52.424
45138W        W37062   9.767   7.767  51.063
45139W        W37063  34.702  32.707  53.795
45140W        W37064  44.710  35.722  53.775
45141W        W37065  42.707  31.723  52.885
45142W        W37066  41.218  12.277  52.869
45143W        W37067  19.764  32.714  50.587
45144W        W37068  23.716  26.225  49.677
45145W        W37069  21.251  14.245  49.685
45146W        W37070   5.245   1.776  50.590
45147W        W37071  29.737   3.788  49.676
45148W        W37072  26.730  13.756  51.492
45149W        W37073  37.712  41.208  52.891
45150W        W37074  39.731   3.273  53.778
45151W        W37075  48.176   7.270  52.406
45152W        W37076  41.212  40.219  51.036
45153W        W37077  23.244  38.220  53.787
45154W        W37078  20.233  44.191  51.042
45155W        W37079  23.760  16.723  51.523
45156W        W37080  46.211  13.744  50.588
45157W        W37081  33.225   4.259  53.795
45158W        W37082  24.758   2.790  51.499
45159W        W37083  45.694  42.696  49.686
45160W        W37084  40.688  29.727  50.593
45161W        W37085  36.208  19.756  52.860
45162W        W37086  25.719  45.191  49.685
45163W        W37087   1.783   2.252  51.496
45164W        W37088   9.262  14.743  51.521
45165W        W37089  15.251  43.192  52.904
45166W        W37090  30.202  30.226  52.875
45167W        W37091  28.212  15.764  52.429
45168W        W37092  13.234  33.702  51.063
45169W        W37093  42.209  20.220  51.078
45170W        W37094  21.757  17.741  50.137
45171W        W37095  26.708  11.761  51.952
45172W        W37096  15.254  11.240  51.039
45173W        W37097  14.228   5.744  50.151
45174W        W37098  41.225  27.725  53.778
45175W        W37099   7.251  14.235  52.424
45176W        W37100  33.716   3.784  51.534
45177W        W37101  44.207  19.723  51.974
45178W        W37102  41.688  24.251  49.666
45179W        W37103  15.269  31.745  51.532
45180W        W37104  41.207  38.704  50.602
45181W        W37105   5.281  37.718  50.580
45182W        W37106  35.727  21.743  53.772
45183W        W37107   7.252  33.207  53.319
45184W        W37108  13.776  21.226  51.987
45185W        W37109  26.221  26.235  53.332
45186W        W37110  47.210  24.755  53.357
45187W        W37111  29.235  28.231  53.327
45188W        W37112  11.276   5.262  50.611
45189W        W37113   4.266  45.678  50.618
45190W        W37114  15.769  34.243  51.951
45191W        W37115  33.736  10.273  49.689
45192W        W37116  13.273  37.218  49.687
45193W        W37117  19.252  35.207  52.439
45194W        W37118  41.186   0.272  53.815
45195W        W37119   7.286  37.716  53.786
45196W        W37120  35.735  10.241  53.817
45197W        W37121  15.726  39.726  51.492
45198W        W37122  41.196  28.215  49.695
45199W        W37123   4.280  19.739  52.891
45200W        W37124  25.712  28.752  52.869
45201W        W37125  34.711   6.288  52.408
45202W        W37126  19.730  37.212  53.800
45203W        W37127  11.278  38.723  53.316
45204W        W37128  42.228   2.289  50.129
45205W        W37129  39.235   2.759  52.895
45206W        W37130  21.261  25.214  52.442
45207W        W37131  25.254  35.218  49.676
45208W        W37132   1.263  44.710  50.150
45209W        W37133  33.200  10.251  49.684
45210W        W37134   3.250   4.785  50.140
45211W        W37135   7.281  20.231  51.050
45212W        W37136  42.228  23.243  53.805
45213W        W37137  14.734  12.771  51.505
45214W        W37138  31.723  24.712  51.078
45215W        W37139   5.285  13.772  50.150
45216W        W37140  32.697  18.259  52.882
45217W        W37141   5.261  23.741  50.604
45218W        W37142  12.258  42.688  51.967
45219W        W37143  22.717  13.734  51.508
45220W        W37144  33.209  23.711  53.803
45221W        W37145  39.207  27.742  50.594
45222W        W37146  47.188   9.775  53.812
45223W        W37147  13.261  32.739  49.675
45224W        W37148  29.732  10.734  52.904
45225W        W37149   3.746  13.276  52.892
45226W        W37150  22.219  28.250  53.784
45227W        W37151  32.713  30.248  51.058
45228W        W37152  28.716  27.718  50.127
45229W        W37153   4.269  45.193  49.666
45230W        W37154  28.703  12.740  49.702
45231W        W37155  28.235  35.218  53.803
45232W        W37156  33.729  38.714  53.793
45233W        W37157  16.236  20.731  52.447
45234W        W37158  16.744  27.714  52.890
45235W        W37159  46.692  42.705  53.781
45236W        W37160  46.213  19.232  52.898
45237W        W37161  21.255  39.710  52.447
45238W        W37162  40.697  27.244  52.415
45239W        W37163  38.236   9.769  51.951
45240W        W37164  20.723   7.765  50.614
45241W        W37165  17.762  24.728  49.665
45242W        W37166  41.710  16.257  53.813
45243W        W37167  16.767  16.771  51.036
45244W        W37168  43.207   5.775  52.409
45245W        W37169  37.220  46.707  52.438
45246W        W37170  22.733  16.267  49.709
45247W        W37171  24.752   7.755  52.431
45248W        W37172  34.732  45.221  53.796
45249W        W37173  37.202   6.758  49.675
45250W        W37174  25.737  32.198  50.123
45251W        W37175   5.780  19.223  50.164
45252W        W37176  42.712  43.190  51.966
45253W        W37177  41.686  24.734  51.511
45254W        W37178  42.182  17.225  50.131
45255W        W37179   5.776   1.775  53.802
45256W        W37180  31.203  22.214  53.817
45257W        W37181  24.237  12.741  50.601
45258W        W37182  26.232  36.193  52.864
45259W        W37183  36.238  18.755  51.522
45260W        W37184  19.747  44.195  53.810
45261W        W37185  24.716  14.726  50.583
45262W        W37186  30.233  14.762  51.074
45263W        W37187  32.221  35.202  53.320
45264W        W37188  47.704  20.753  53.779
45265W        W37189  34.697   3.786  51.525
45266W        W37190  36.230   0.298  50.146
45267W        W37191  44.713  11.759  49.664
45268W        W37192   6.756  47.719  52.893
45269W        W37193  19.725  41.715  50.152
45270W        W37194  13.774  32.727  52.418
45271W        W37195  28.210  10.278  51.951
45272W        W37196  28.706  26.240  53.317
45273W        W37197  12.733  41.706  50.127
45274W        W37198  40.198  17.250  52.444
45275W        W37199   7.250   3.778  51.058
45276W        W37200   7.287   3.277  51.947
45277W        W37201   5.783  40.693  52.888
45278W        W37202  32.206  14.756  50.166
45279W        W37203  17.724  26.710  52.866
45280W        W37204  38.223   9.763  52.893
45281W        W37205   1.298   7.739  53.809
45282W        W37206   5.260  13.759  52.881
45283W        W37207  15.251  38.705  49.667
45284W        W37208  43.687  30.722  51.533
45285W        W37209  39.685  26.241  52.439
45286W        W37210  29.739   2.253  50.607
45287W        W37211   5.251  18.247  53.348
45288W        W37212  40.726  13.264  51.963
45289W        W37213  16.232  45.698  50.165
45290W        W37214  27.735  33.725  51.950
45291W        W37215  24.720  15.236  50.130
45292W        W37216   8.737  16.245  53.779
45293W        W37217  44.723  43.715  53.813
45294W        W37218  40.209   7.739  51.529
45295W        W37219   5.784   6.757  51.076
45296W        W37220  10.256   8.770  51.492
45297W        W37221   0.766  28.234  53.812
45298W        W37222   5.776  46.183  51.497
45299W        W37223   1.293   0.788  51.065
45300W        W37224   9.278  27.742  52.902
45301W        W37225  23.248  37.211  50.604
45302W        W37226   2.779  19.758  51.988
45303W        W37227   1.756   3.251  53.798
45304W        W37228  38.210   4.776  51.950
45305W        W37229  32.718  42.704  52.416
45306W        W37230  26.209  26.751  53.787
45307W        W37231  22.742  43.217  51.980
45308W        W37232  37.729  46.179  52.866
45309W        W37233  48.202  19.263  51.529
45310W        W37234  28.731  17.758  53.329
45311W        W37235   0.287   0.771  51.045
45312W        W37236  35.233  21.730  53.784
45313W        W37237  22.730  22.727  53.316
45314W        W37238  40.197   1.758  53.329
45315W        W37239  45.191  36.722  53.351
45316W        W37240  42.698  33.710  49.672
45317W        W37241  38.696  10.758  51.065
45318W        W37242  28.726  16.733  49.666
45319W        W37243   1.271  39.705  51.991
45320W        W37244   9.278  30.238  51.067
45321W        W37245  23.744  24.733  53.781
45322W        W37246  46.191  31.244  50.589
45323W        W37247  43.225  18.228  49.675
45324W        W37248  39.187   3.289  53.808
45325W        W37249  16.760  34.216  53.795
45326W        W37250  23.729  30.748  51.511
45327W        W37251   5.752  14.263  53.318
45328W        W37252  11.232  21.744  51.948
45329W        W37253  11.270  25.235  51.504
45330W        W37254  14.750   8.257  49.664
45331W        W37255   2.792  41.724  50.612
45332W        W37256  32.238  42.710  52.881
45333W        W37257   5.753  44.695  53.321
45334W        W37258  31.231  40.707  53.801
45335W        W37259  34.721  22.727  50.146
45336W        W37260   8.747  21.730  51.078
45337W        W37261  15.268  44.722  51.953
45338W        W37262  18.747  18.245  52.897
45339W        W37263  21.724  19.258  50.582
45340W        W37264  15.248  47.218  49.675
45341W        W37265  29.238  19.741  52.884
45342W        W37266   7.761  24.731  51.528
45343W        W37267   7.251  25.708  49.684
45344W        W37268  46.706   4.784  50.618
45345W        W37269  30.223  45.197  52.885
45346W        W37270  10.280  40.185  53.796
45347W        W37271  21.233  20.228  51.508
45348W        W37272  14.229  37.230  50.154
45349W        W37273  20.754  26.718  50.166
45350W        W37274   4.757  16.743  50.599
45351W        W37275  44.224  12.247  53.333
45352W        W37276  29.215  42.184  51.990
45353W        W37277  13.258   7.748  50.145
45354W        W37278  11.748   0.283  53.326
45355W        W37279  21.255  28.729  51.529
45356W        W37280  20.219  11.777  49.673
45357W        W37281  29.748  19.729  52.412
45358W        W37282  22.756  25.231  52.441
45359W        W37283   0.763   9.772  53.811
45360W        W37284  16.254  35.228  51.049
45361W        W37285  20.719  13.763  51.962
45362W        W37286  35.195   0.765  52.406
45363W        W37287  39.220   3.249  52.404
45364W        W37288  34.723  16.743  52.416
45365W        W37289  26.714  42.195  51.526
45366W        W37290  34.227  23.244  53.338
45367W        W37291  32.245  40.684  51.072
45368W        W37292  31.718  30.201  51.507
45369W        W37293  36.233  11.743  53.795
45370W        W37294  36.210  38.191  53.359
45371W        W37295  31.732  33.196  52.423
45372W        W37296   0.269  37.719  51.520
45373W        W37297  30.726  19.758  53.781
45374W        W37298  38.709  33.718  52.899
45375W        W37299  11.732  10.777  51.982
45376W        W37300  17.232  10.752  51.967
45377W        W37301  25.714   6.758  52.437
45378W        W37302  48.194  14.729  50.162
45379W        W37303   9.267  25.242  50.590
45380W        W37304  30.202  44.683  51.517
45381W        W37305  36.732   6.271  51.493
45382W        W37306  13.728   6.244  51.950
45383W        W37307  10.754   6.776  49.665
45384W        W37308  22.259   3.263  51.073
45385W        W37309   9.782  32.703  50.603
45386W        W37310   0.282   9.772  51.041
45387W        W37311  35.704   6.750  50.613
45388W        W37312  36.232  47.718  51.978
45389W        W37313  45.203  44.205  51.493
45390W        W37314  15.233  14.755  53.355
45391W        W37315  10.752  35.741  50.578
45392W        W37316   1.283  40.700  52.418
45393W        W37317  46.195  34.228  51.075
45394W        W37318  48.194  16.269  51.534
45395W        W37319  40.691   4.762  53.328
45396W        W37320   5.743  27.233  50.138
45397W        W37321  27.720   9.271  53.358
45398W        W37322  16.269  18.766  53.355
45399W        W37323   1.793  38.191  51.987
45400W        W37324   0.756   8.772  49.698
45401W        W37325  32.202   4.780  49.684
45402W        W37326  13.764  13.229  51.534
45403W        W37327  30.717  23.228  49.675
45404W        W37328  11.248  43.707  50.144
45405W        W37329   2.751  14.732  49.695
45406W        W37330  39.197   8.757  49.670
45407W        W37331   6.262  43.219  50.158
45408W        W37332  34.242  11.780  49.674
45409W        W37333   9.762   8.249  53.803
45410W        W37334  26.719  26.736  51.948
45411W        W37335  39.693  41.188  51.987
45412W        W37336  33.215  41.202  52.427
45413W        W37337  47.686  18.729  51.964
45414W        W37338  37.727  15.247  51.491
45415W        W37339  10.255  40.732  53.812
45416W        W37340  47.187  21.726  53.799
45417W        W37341  47.178  34.207  50.577
45418W        W37342  31.227  35.706  51.513
45419W        W37343  14.240  45.181  51.490
45420W        W37344   6.260  21.715  53.781
45421W        W37345  32.211  18.765  53.778
45422W        W37346  10.777  19.268  53.789
45423W        W37347  26.214  32.243  53.802
45424W        W37348  12.779  39.705  50.587
45425W        W37349  36.191  22.229  49.698
45426W        W37350  39.199   0.786  50.138
45427W        W37351   7.266  11.777  51.068
45428W        W37352  12.766  36.230  49.702
45429W        W37353   8.275  24.226  51.056
45430W        W37354  42.727  30.743  53.786
45431W        W37355  17.755  20.224  50.617
45432W        W37356  44.697  24.755  53.339
45433W        W37357  39.213  36.232  53.801
45434W        W37358  14.756   8.748  51.966
45435W        W37359   4.281  27.732  52.901
45436W        W37360  27.229  21.254  51.988
45437W        W37361  32.223  30.246  51.046
45438W        W37362  39.224  14.239  50.152
45439W        W37363  27.205  10.750  50.585
45440W        W37364  19.747  28.208  52.430
45441W        W37365  18.757  25.220  52.881
45442W        W37366  20.218   7.244  50.601
45443W        W37367  26.239  15.239  51.517
45444W        W37368  35.710  27.753  50.123
45445W        W37369   9.778  10.776  53.343
45446W        W37370  11.739  21.264  50.615
45447W        W37371  21.717   1.261  51.517
45448W        W37372  47.716  31.244  53.341
45449W        W37373   4.249  18.729  51.077
45450W        W37374  41.201   4.770  51.059
45451W        W37375  40.696  12.231  53.319
45452W        W37376  18.223  25.230  51.991
45453W        W37377  42.701  20.721  52.421
45454W        W37378   9.754  22.245  51.962
45455W        W37379  39.224  20.217  49.703
45456W        W37380  48.198  23.721  53.336
45457W        W37381  48.190   0.788  52.869
45458W        W37382  40.226  48.206  51.979
45459W        W37383  17.752  13.262  50.133
45460W        W37384  30.214  31.216  53.788
45461W        W37385  26.210   2.747  52.417
45462W        W37386  14.273  44.212  50.128
45463W        W37387  41.187  12.740  52.860
45464W        W37388  22.744  12.753  49.704
45465W        W37389  42.693  34.728  51.502
45466W        W37390  33.195  38.730  52.860
45467W        W37391  16.270   6.753  51.522
45468W        W37392  39.722  48.185  50.131
45469W        W37393  13.258  25.226  52.448
45470W        W37394  20.252  44.192  52.413
45471W        W37395  46.187  45.182  51.958
45472W        W37396  40.683  46.186  51.982
45473W        W37397  44.717  43.224  49.672
45474W        W37398  28.244   9.752  51.060
45475W        W37399  34.231  18.744  51.953
45476W        W37400  26.735   0.295  51.499
45477W        W37401   7.749  12.760  50.603
45478W        W37402  28.206  36.739  50.585
45479W        W37403  38.198  43.192  51.990
45480W        W37404  36.703  21.259  50.154
45481W        W37405  33.240   8.772  50.588
45482W        W37406  11.753  29.725  52.868
45483W        W37407  31.714   6.761  53.808
45484W        W37408  35.203  25.751  52.872
45485W        W37409  19.229  25.724  51.978
45486W        W37410  40.714  47.216  52.404
45487W        W37411  25.258  36.701  51.975
45488W        W37412  27.742   6.772  53.789
45489W        W37413  44.700  39.231  53.346
45490W        W37414   1.769  31.730  53.318
45491W        W37415  39.192   1.249  51.512
45492W        W37416  41.695  46.190  53.317
45493W        W37417  26.212  11.734  50.579
45494W        W37418  37.225  22.233  49.685
45495W        W37419  20.740  42.727  52.871
45496W        W37420  22.217  10.760  52.891
45497W        W37421  37.232  29.731  51.529
45498W        W37422   5.269  43.219  52.431
45499W        W37423  22.239   4.258  53.801
45500W        W37424  34.739  18.745  53.792
45501W        W37425  18.227  11.732  53.817
45502W        W37426  11.265   9.764  51.499
45503W        W37427   7.783   2.749  51.967
45504W        W37428  47.222   5.788  53.355
45505W        W37429   2.252  38.209  51.047
45506W        W37430  12.244  13.760  53.779
45507W        W37431  33.714  32.719  52.419
45508W        W37432  45.211  18.742  52.425
45509W        W37433  41.224  35.238  49.674
45510W        W37434   4.255  35.703  51.517
45511W        W37435   9.766   3.252  52.877
45512W        W37436  26.225   6.751  52.866
45513W        W37437  35.704  26.210  50.129
45514W        W37438  32.697   5.774  51.962
45515W        W37439  43.709  37.191  51.067
45516W        W37440   1.251  39.722  53.807
45517W        W37441  18.248  39.703  50.153
45518W        W37442   1.286  18.727  50.121
45519W        W37443  38.189  47.200  50.135
45520W        W37444  40.224  46.184  50.124
45521W        W37445   7.786  38.188  52.406
45522W        W37446  18.267  40.212  49.674
45523W        W37447   8.783  29.237  53.354
45524W        W37448   7.757   0.277  51.986
45525W        W37449  23.219  16.264  51.078
45526W        W37450   9.281  45.698  53.350
45527W        W37451  19.255  26.720  50.121
45528W        W37452  11.251   9.275  53.360
45529W        W37453  15.225  19.228  51.047
45530W        W37454   9.775  25.736  49.701
45531W        W37455   2.793  11.777  49.687
45532W        W37456  28.226   2.746  50.613
45533W        W37457  12.274  36.200  53.784
45534W        W37458  31.227  27.740  53.335
45535W        W37459   8.270  14.264  53.319
45536W        W37460  25.719  18.265  51.955
45537W        W37461  18.765  43.718  53.811
45538W        W37462   7.269  36.209  49.696
45539W        W37463  47.196  24.743  51.521
45540W        W37464  28.226  22.262  49.692
45541W        W37465   9.277  47.716  51.528
45542W        W37466  29.215  22.713  51.063
45543W        W37467  18.241  24.758  53.323
45544W        W37468  42.194  11.270  51.057
45545W        W37469  47.176  27.214  51.063
45546W        W37470  29.222  18.246  50.142
45547W        W37471  18.244   1.266  50.622
45548W        W37472  13.763   7.286  52.883
45549W        W37473   6.760  41.231  51.986
45550W        W37474  10.745  21.757  53.351
45551W        W37475  37.689   3.766  51.073
45552W        W37476  33.709  19.725  53.332
45553W        W37477  24.246  23.235  51.963
45554W        W37478  45.199  13.746  51.967
45555W        W37479  28.747  16.256  50.148
45556W        W37480  23.224   5.789  52.445
45557W        W37481   4.289  35.235  53.357
45558W        W37482  16.743  37.727  51.984
45559W        W37483  36.690  38.189  53.803
45560W        W37484   1.760  16.727  51.976
45561W        W37485  48.186   7.258  51.953
45562W        W37486  33.239  48.199  50.597
45563W        W37487  24.230  28.736  50.606
45564W        W37488  34.716  15.240  50.147
45565W        W37489  26.246  46.713  52.426
45566W        W37490  38.193  19.256  50.599
45567W        W37491  28.229  33.227  53.331
45568W        W37492   9.272  25.756  53.805
45569W        W37493  12.772  18.761  51.520
45570W        W37494   6.786  26.754  53.354
45571W        W37495  47.182  47.188  51.502
45572W        W37496   6.267  23.713  50.587
45573W        W37497  47.174  40.732  50.144
45574W        W37498   8.784   0.799  51.974
45575W        W37499  25.721   7.769  49.700
45576W        W37500  27.719  48.187  53.787
45577W        W37501  30.704  42.707  50.124
45578W        W37502  14.238  44.204  50.611
45579W        W37503  23.721  16.736  53.803
45580W        W37504  37.690  17.225  53.779
45581W        W37505  20.228   3.773  50.144
45582W        W37506  24.730  47.212  50.133
45583W        W37507  28.213  28.250  52.872
45584W        W37508  23.752   5.779  50.620
45585W        W37509   5.286  47.192  53.360
45586W        W37510  17.232  12.247  53.361
45587W        W37511  46.223  28.236  52.896
45588W        W37512  41.704  22.261  51.046
45589W        W37513  23.759  42.701  49.696
45590W        W37514  17.258  10.280  52.888
45591W        W37515   3.783  32.232  53.805
45592W        W37516  10.273  34.221  52.885
45593W        W37517   8.739   4.269  50.136
45594W        W37518   6.265  21.763  51.064
45595W        W37519  15.747   0.792  49.688
45596W        W37520  19.250  46.674  49.666
45597W        W37521  17.233  11.271  51.514
45598W        W37522   3.293  21.264  49.669
45599W        W37523  37.733  45.721  50.586
45600W        W37524  27.744   4.760  51.071
45601W        W37525  29.705   0.296  53.795
45602W        W37526  17.233  36.710  50.616
45603W        W37527  42.204  15.747  51.531
45604W        W37528  29.737  37.236  52.448
45605W        W37529   4.245  31.743  53.344
45606W        W37530  19.246  21.735  53.320
45607W        W37531  48.194  23.257  53.330
45608W        W37532   9.749  11.233  49.698
45609W        W37533  45.677  17.739  50.607
45610W        W37534  19.234  36.231  51.982
45611W        W37535  29.743  32.717  53.351
45612W        W37536  34.734  28.231  49.684
45613W        W37537  27.251  43.206  53.337
45614W        W37538  10.737  46.689  50.591
45615W        W37539  12.231  22.728  49.708
45616W        W37540   9.766  18.743  49.669
45617W        W37541  20.251  45.675  51.066
45618W        W37542   0.297  28.739  50.130
45619W        W37543  38.723  46.202  51.069
45620W        W37544   2.281   8.754  50.144
45621W        W37545  33.215  33.243  51.948
45622W        W37546  45.195  18.766  51.508
45623W        W37547  23.219  36.708  53.787
45624W        W37548  16.248  48.186  51.990
45625W        W37549  15.226  23.748  52.895
45626W        W37550  29.205   3.771  52.876
45627W        W37551  40.227  14.774  50.136
45628W        W37552  23.246  16.229  51.948
45629W        W37553  42.203  40.206  51.061
45630W        W37554  37.232  16.756  51.511
45631W        W37555   6.754  19.262  53.802
45632W        W37556  30.709  37.236  53.790
45633W        W37557  37.194  47.676  53.319
45634W        W37558  41.700  17.266  50.128
45635W        W37559  20.249  12.735  51.492
45636W        W37560  17.734  11.239  53.330
45637W        W37561  26.213  46.690  53.337
45638W        W37562  45.675   8.755  50.613
45639W        W37563  26.742  18.220  51.532
45640W        W37564  47.705  41.730  50.150
45641W        W37565  35.700  24.216  52.900
45642W        W37566  19.249  44.199  52.408
45643W        W37567  11.264  24.755  52.863
45644W        W37568  21.755  48.209  49.667
45645W        W37569  13.774  11.776  52.869
45646W        W37570  28.226  39.707  53.808
45647W        W37571  38.717   4.291  50.156
45648W        W37572  30.223  13.739  52.902
45649W        W37573  32.709  22.723  49.703
45650W        W37574   0.285  32.221  53.345
45651W        W37575   6.766  36.698  53.360
45652W        W37576  36.217  27.721  51.051
45653W        W37577  36.239  27.728  52.444
45654W        W37578  47.203  10.761  53.320
45655W        W37579   4.288  47.193  51.525
45656W        W37580  41.706  43.219  52.447
45657W        W37581  28.250   3.775  50.586
45658W        W37582  22.245  32.737  53.784
45659W        W37583   4.280   7.742  53.346
45660W        W37584  35.734  46.175  51.534
45661W        W37585  12.232  26.242  52.437
45662W        W37586  23.251  17.241  51.060
45663W        W37587  43.684  25.714  50.620
45664W        W37588  29.736   4.751  53.780
45665W        W37589  47.719  23.260  49.666
45666W        W37590  25.240   3.784  52.439
45667W        W37591  15.747  28.720  53.344
45668W        W37592  14.233  36.713  52.888
45669W        W37593  45.186  36.714  52.443
45670W        W37594  35.702  38.723  49.686
45671W        W37595   2.782  47.678  50.614
45672W        W37596   4.776  15.234  53.345
45673W        W37597   0.257  27.214  52.444
45674W        W37598   4.788  46.687  51.533
45675W        W37599  47.207  16.753  53.792
45676W        W37600  38.719  48.182  52.421
45677W        W37601  21.729  40.185  53.793
45678W        W37602  44.227  30.219  51.521
45679W        W37603   8.785  31.711  50.606
45680W        W37604  14.257  24.740  51.492
45681W        W37605  38.727  47.190  50.593
45682W        W37606  46.673  26.252  50.591
45683W        W37607  44.706  44.690  52.408
45684W        W37608  15.241  37.719  51.956
45685W        W37609   2.776  43.699  53.776
45686W        W37610  44.214   5.271  51.051
45687W        W37611  24.748  41.706  50.131
45688W        W37612  34.709  11.743  49.701
45689W        W37613  29.227  42.222  49.704
45690W        W37614  15.248  38.714  50.132
45691W        W37615  15.754  25.719  51.961
45692W        W37616  15.755  31.204  52.444
45693W        W37617  36.721   2.755  53.327
45694W        W37618  28.727  11.778  50.617
45695W        W37619  11.267  11.737  49.668
45696W        W37620  13.754  46.208  51.519
45697W        W37621   0.754  31.233  53.803
45698W        W37622  19.264  16.247  50.130
45699W        W37623  17.737  12.266  50.137
45700W        W37624   8.776  26.220  51.039
45701W        W37625  31.709   5.788  50.162
45702W        W37626  10.240  25.742  53.327
45703W        W37627   9.744   0.251  52.439
45704W        W37628   4.763  13.236  51.034
45705W        W37629  14.756  30.727  51.965
45706W        W37630  17.769  39.193  51.527
45707W        W37631  19.746  39.194  51.061
45708W        W37632  42.687  24.254  50.155
45709W        W37633  47.674  28.725  51.035
45710W        W37634  18.253  30.248  50.581
45711W        W37635  40.194  41.218  49.683
45712W        W37636  24.752   9.735  52.902
45713W        W37637  13.734   6.278  50.604
45714W        W37638  13.261  16.730  51.517
45715W        W37639  18.235   3.252  52.893
45716W        W37640  27.227  33.218  51.962
45717W        W37641  19.722  41.217  51.049
45718W        W37642  29.202  45.695  51.048
45719W        W37643  30.234  15.770  53.349
45720W        W37644   3.261  20.219  51.044
45721W        W37645  46.197  25.717  51.040
45722W        W37646  20.252  44.181  53.344
45723W        W37647  24.222  27.254  53.360
45724W        W37648  23.251  38.725  52.427
45725W        W37649  30.702  24.228  51.521
45726W        W37650  42.709  45.205  51.034
45727W        W37651  45.706  43.184  52.433
45728W        W37652  29.249  13.276  51.072
45729W        W37653   9.746  41.228  49.688
45730W        W37654  18.768  36.223  50.620
45731W        W37655  23.756  14.237  51.952
45732W        W37656   0.283  43.180  52.407
45733W        W37657  46.715  41.721  53.330
45734W        W37658  42.210  28.711  50.610
45735W        W37659  35.196  38.721  51.976
45736W        W37660  16.742  19.224  50.123
45737W        W37661  10.244  25.732  51.510
45738W        W37662  38.189  33.707  49.696
45739W        W37663   9.284  22.725  53.348
45740W        W37664  28.205  44.699  51.048
45741W        W37665   5.255  11.239  50.595
45742W        W37666  35.696   9.743  50.599
45743W        W37667  30.208  34.713  53.340
45744W        W37668   1.297  29.204  51.072
45745W        W37669  41.211  40.229  50.584
45746W        W37670   1.796  43.699  51.065
45747W        W37671  42.217  44.216  50.165
45748W        W37672  18.737   2.764  49.673
45749W        W37673  10.760  47.698  49.667
45750W        W37674  20.264  27.727  52.861
45751W        W37675  36.239  11.233  51.972
45752W        W37676  19.766   6.261  52.414
45753W        W37677   9.253  38.736  49.677
45754W        W37678  26.725  41.710  50.151
45755W        W37679  44.688  17.243  51.511
45756W        W37680  24.217  37.735  50.145
45757W        W37681   0.259  25.245  51.956
45758W        W37682   9.750  23.242  51.956
45759W        W37683  32.210   2.257  51.506
45760W        W37684   7.287  30.734  51.530
45761W        W37685  20.223  28.232  49.680
45762W        W37686  45.710  20.760  50.606
45763W        W37687  12.734  27.226  52.901
45764W        W37688  19.766  41.229  52.865
45765W        W37689  48.204  41.729  53.329
45766W        W37690  23.227   7.274  50.135
45767W        W37691  16.226  43.199  49.689
45768W        W37692   6.771   9.756  51.498
45769W        W37693  22.720  45.193  52.879
45770W        W37694  21.252   5.745  51.984
45771W        W37695  27.254  41.206  50.145
45772W        W37696  38.226  27.727  53.324
45773W        W37697  47.685  47.695  53.787
45774W        W37698  39.720  25.734  50.581
45775W        W37699  34.228  45.722  53.812
45776W        W37700  36.232  30.733  51.969
45777W        W37701  35.240  45.685  52.447
45778W        W37702  36.738  30.215  52.894
45779W        W37703   8.253  34.724  50.125
45780W        W37704   2.259  35.241  51.494
45781W        W37705  12.775   4.276  50.152
45782W        W37706  43.723  41.696  51.065
45783W        W37707   1.778  45.219  53.804
45784W        W37708  12.743   0.261  50.612
45785W        W37709  43.213  45.196  53.343
45786W        W37710  43.699  30.204  51.528
45787W        W37711   2.761  24.732  51.530
45788W        W37712  23.752  36.205  52.899
45789W        W37713   8.772  29.740  52.442
45790W        W37714   8.764  42.683  52.416
45791W        W37715  32.705   2.772  50.609
45792W        W37716   3.281  19.252  51.501
45793W        W37717  17.253  17.738  50.600
45794W        W37718  48.191  48.193  52.889
45795W        W37719  38.694  23.741  51.506
45796W        W37720   3.768   5.274  49.669
45797W        W37721  27.236  29.735  51.522
45798W        W37722  27.229  11.241  51.956
45799W        W37723  17.723  27.216  50.619
45800W        W37724   1.261  10.234  50.578
45801W        W37725  46.183   4.246  53.360
45802W        W37726   7.765  11.773  50.137
45803W        W37727  45.698  45.216  53.782
45804W        W37728   8.758  12.253  53.811
45805W        W37729  24.230  27.216  51.048
45806W        W37730  21.748  39.689  51.534
45807W        W37731  39.192  36.240  51.528
45808W        W37732  14.240  13.762  52.404
45809W        W37733  14.754  37.205  51.059
45810W        W37734  16.255  29.226  52.881
45811W        W37735  16.242  43.726  53.352
45812W        W37736  23.749  39.226  52.445
45813W        W37737  38.221   0.751  52.437
45814W        W37738  36.713  40.221  53.812
45815W        W37739   1.297  19.741  49.683
45816W        W37740  15.253  29.233  51.069
45817W        W37741  32.214  33.717  50.132
45818W        W37742  16.235  37.704  53.328
45819W        W37743  18.244  17.736  53.788
45820W        W37744  18.244  23.723  53.326
45821W        W37745  41.694  31.746  52.898
45822W        W37746  43.727   3.293  52.445
45823W        W37747  22.260  20.263  49.678
45824W        W37748  31.727   7.281  51.963
45825W        W37749  35.223  16.769  50.580
45826W        W37750   0.295  11.759  49.665
45827W        W37751  10.270  42.225  52.864
45828W        W37752  40.697   8.785  51.064
45829W        W37753  41.194  23.233  49.665
45830W        W37754   0.253  28.732  51.959
45831W        W37755  26.226  14.227  52.894
45832W        W37756  10.750  24.757  53.812
45833W        W37757  21.733  13.254  53.798
45834W        W37758  15.230  24.232  51.524
45835W        W37759  31.746  14.228  51.494
45836W        W37760  38.205   8.256  51.071
45837W        W37761   0.749  10.279  51.509
45838W        W37762  28.727  24.222  49.708
45839W        W37763  26.745   8.737  52.409
45840W        W37764   6.747  39.219  49.686
45841W        W37765  17.239  16.723  51.078
45842W        W37766  29.726  31.746  50.619
45843W        W37767  26.719  30.710  50.165
45844W        W37768  44.178  37.192  51.038
45845W        W37769  23.240  38.709  50.605
45846W        W37770   7.286  23.720  50.584
45847W        W37771   5.786  30.706  51.054
45848W        W37772   8.760  17.243  50.612
45849W        W37773  32.226  11.236  53.817
45850W        W37774  45.202  17.731  53.336
45851W        W37775  14.236  37.719  53.799
45852W        W37776   0.793  31.718  53.327
45853W        W37777  45.717  45.683  51.072
45854W        W37778  23.750  31.208  51.497
45855W        W37779  10.262   1.755  51.980
45856W        W37780   1.779  28.745  53.332
45857W        W37781   7.738  17.733  51.988
45858W        W37782  41.689  35.701  49.667
45859W        W37783  47.217  46.186  52.412
45860W        W37784  34.732  31.701  52.873
45861W        W37785  13.246   1.292  52.865
45862W        W37786  23.758   5.291  52.883
45863W        W37787  12.255  38.188  50.148
45864W        W37788  22.731  33.234  51.065
45865W        W37789  25.224   5.747  53.804
45866W        W37790  37.225  14.760  51.064
45867W        W37791  29.705  42.201  52.903
45868W        W37792  42.215   9.274  51.045
45869W        W37793   1.278  33.220  49.686
45870W        W37794  21.742  16.264  51.507
45871W        W37795  28.712  14.749  53.794
45872W        W37796  10.239  44.196  53.782
45873W        W37797   0.751  22.719  52.443
45874W        W37798  18.736  27.726  52.886
45875W        W37799   6.272  22.233  50.590
45876W        W37800   0.260  16.752  52.898
45877W        W37801  32.728  31.721  53.778
45878W        W37802  28.231  46.703  50.606
45879W        W37803   3.747  22.742  52.443
45880W        W37804   8.275  35.196  50.620
45881W        W37805  21.717  13.768  51.989
45882W        W37806  25.710  38.196  52.889
45883W        W37807   2.283  39.702  50.147
45884W        W37808   9.244  29.248  51.491
45885W        W37809  22.726  11.250  52.407
45886W        W37810  24.214  40.702  53.354
45887W        W37811  42.204  14.771  52.412
45888W        W37812   4.755  38.191  51.956
45889W        W37813  27.230   8.249  49.696
45890W        W37814  33.225  45.206  49.709
45891W        W37815   6.753  35.721  51.982
45892W        W37816  35.702  30.203  50.148
45893W        W37817  15.259  23.722  50.613
45894W        W37818   7.279  31.698  50.582
45895W        W37819   7.763  11.276  49.676
45896W        W37820  46.690  10.260  51.535
45897W        W37821  41.710  47.694  53.355
45898W        W37822  29.214  22.714  51.532
45899W        W37823  44.705   5.277  53.812
45900W        W37824  40.719  24.213  53.325
45901W        W37825  38.719   4.254  53.350
45902W        W37826  40.221  31.207  50.610
45903W        W37827  19.734  39.188  49.701
45904W        W37828  26.732  17.246  53.802
45905W        W37829  28.703  29.210  52.866
45906W        W37830  30.734   9.283  49.678
45907W        W37831   6.761  13.728  51.511
45908W        W37832  34.706   1.266  52.443
45909W        W37833  21.739  42.191  53.804
45910W        W37834  37.210   2.795  52.429
45911W        W37835  15.748   7.245  51.960
45912W        W37836  33.237  14.768  53.345
45913W        W37837   6.269  30.739  51.050
45914W        W37838  11.252  30.213  53.320
45915W        W37839   8.254  26.743  52.889
45916W        W37840  37.217  19.260  49.665
45917W        W37841  19.757  40.698  52.448
45918W        W37842  11.733  20.721  50.123
45919W        W37843  12.751  43.203  52.866
45920W        W37844  23.714  34.208  51.973
45921W        W37845   1.270  12.271  53.812
45922W        W37846  10.250  20.251  50.580
45923W        W37847  15.227  24.733  50.599
45924W        W37848  38.692  19.759  52.420
45925W        W37849  37.737  21.723  50.600
45926W        W37850  10.242  17.756  51.529
45927W        W37851  29.748   3.784  53.316
45928W        W37852  41.689   6.767  53.342
45929W        W37853  12.265  18.239  52.883
45930W        W37854  46.210  17.238  50.596
45931W        W37855   9.756  19.736  49.683
45932W        W37856  22.240   1.787  52.407
45933W        W37857  38.700  22.747  52.891
45934W        W37858   5.248   5.254  50.583
45935W        W37859  19.254  22.218  50.594
45936W        W37860  42.729  31.741  53.332
45937W        W37861  15.751  44.685  51.521
45938W        W37862  18.250  28.245  51.960
45939W        W37863  21.764  41.202  51.952
45940W        W37864  28.232   0.270  53.806
45941W        W37865  25.222  24.710  52.902
45942W        W37866  27.233   2.784  50.133
45943W        W37867  37.722   4.266  53.359
45944W        W37868  38.696  25.752  53.327
45945W        W37869  43.218  18.760  53.335
45946W        W37870  47.204  10.241  52.430
45947W        W37871   2.256   6.286  51.074
45948W        W37872  16.750   1.270  50.122
45949W        W37873  37.234  46.214  51.518
45950W        W37874  28.728  12.268  51.041
45951W        W37875   7.786  16.240  52.420
45952W        W37876  26.240  24.232  49.684
45953W        W37877  26.238  10.754  53.339
45954W        W37878  22.220   7.251  52.427
45955W        W37879  16.757  10.267  52.413
45956W        W37880  37.196  44.184  50.588
45957W        W37881  37.235  32.729  51.061
45958W        W37882   7.765  37.220  52.423
45959W        W37883  31.720  23.213  50.165
45960W        W37884  37.204   7.747  49.702
45961W        W37885  37.217  40.221  52.423
45962W        W37886  45.724  11.759  52.407
45963W        W37887   4.790   0.777  52.429
45964W        W37888   0.755  45.194  52.879
45965W        W37889  16.737  47.672  50.609
45966W        W37890  43.683   0.253  50.130
45967W        W37891  27.208  19.261  51.498
45968W        W37892   0.294  17.248  50.582
45969W        W37893  16.766  26.253  53.790
45970W        W37894  22.742  19.238  51.953
45971W        W37895  36.732  37.216  51.496
45972W        W37896   5.289   4.755  52.875
45973W        W37897  27.239  40.729  50.148
45974W        W37898  10.738  17.240  53.785
45975W        W37899  44.188   2.794  53.775
45976W        W37900   5.753  32.706  53.804
45977W        W37901  45.722  38.734  50.165
45978W        W37902  13.746  20.241  53.782
45979W        W37903  48.210  32.208  51.950
45980W        W37904  34.709  16.259  49.689
45981W        W37905  43.195  10.775  52.443
45982W        W37906  14.245   5.767  49.671
45983W        W37907  48.213  24.242  52.905
45984W        W37908  13.743   9.761  51.496
45985W        W37909  21.224  36.723  52.404
45986W        W37910  14.272   8.760  51.977
45987W        W37911  35.231  20.754  52.437
45988W        W37912   8.766  39.218  53.815
45989W        W37913  17.729  35.725  53.814
45990W        W37914  39.230  18.252  51.511
45991W        W37915  26.228  37.237  51.524
45992W        W37916  18.231  10.251  51.516
45993W        W37917  42.702  21.728  53.361
45994W        W37918  21.718   8.774  53.781
45995W        W37919  20.757  42.183  51.062
45996W        W37920  46.677   7.777  52.890
45997W        W37921  26.742  47.175  53.793
45998W        W37922  43.216  47.183  50.133
45999W        W37923  14.246  36.198  51.530
46000W        W37924   3.253  34.202  50.154
46001W        W37925   0.757   1.763  51.532
46002W        W37926   6.281  21.251  52.869
46003W        W37927  41.707   9.256  50.600
46004W        W37928  23.240  47.178  52.444
46005W        W37929  22.243  14.264  53.811
46006W        W37930  46.184  23.759  51.950
46007W        W37931  44.708  48.188  52.886
46008W        W37932  40.201   9.243  52.447
46009W        W37933  18.229  32.202  52.403
46010W        W37934  32.719   4.260  53.774
46011W        W37935  12.276  22.761  53.774
46012W        W37936  32.244   4.243  53.774
46013W        W37937  17.260  47.673  52.869
46014W        W37938  27.216  36.212  52.420
46015W        W37939  47.186  41.227  51.988
46016W        W37940  16.723  24.734  50.151
46017W        W37941  12.234   8.259  51.530
46018W        W37942  34.724  15.256  51.504
46019W        W37943  37.194   2.271  51.975
46020W        W37944  46.703   6.770  53.341
46021W        W37945  33.198  21.258  51.496
46022W        W37946  28.240   3.751  53.806
46023W        W37947  25.730  47.176  51.039
46024W        W37948   7.269  20.719  52.416
46025W        W37949  47.690  33.221  52.901
46026W        W37950  29.235  33.211  52.424
46027W        W37951  21.719  24.211  52.443
46028W        W37952  42.217  23.750  50.577
46029W        W37953  38.224   0.295  51.977
46030W        W37954   4.756  46.685  53.782
46031W        W37955  40.689  37.219  53.335
46032W        W37956  30.243  29.719  52.880
46033W        W37957  28.734  25.717  51.064
46034W        W37958   8.249   2.251  52.421
46035W        W37959  13.737   7.240  50.584
46036W        W37960  44.692  11.778  51.950
46037W        W37961  24.221  33.224  51.505
46038W        W37962  27.710   7.257  50.610
46039W        W37963  18.758   6.286  50.155
46040W        W37964   9.255  38.228  53.801
46041W        W37965  37.203   2.759  51.074
46042W        W37966   3.282   3.282  52.884
46043W        W37967  18.725   0.295  52.430
46044W        W37968  19.718  29.222  52.425
46045W        W37969   9.276  27.724  53.355
46046W        W37970  26.730  23.738  51.056
46047W        W37971  41.695   5.265  51.523
46048W        W37972  22.244  41.727  51.981
46049W        W37973  28.733  45.675  51.491
46050W        W37974  40.216   5.268  51.953
46051W        W37975  34.195  21.720  51.949
46052W        W37976  46.222  47.692  49.666
46053W        W37977  19.749  46.193  53.323
46054W        W37978  47.213  27.711  51.513
46055W        W37979  13.774  28.710  52.877
46056W        W37980   0.758  23.225  51.532
46057W        W37981  31.245  18.735  49.698
46058W        W37982  48.212  47.700  50.130
46059W        W37983  29.728  37.723  50.164
46060W        W37984  28.207  21.745  53.335
46061W        W37985  45.213  28.714  53.777
46062W        W37986  47.181  23.255  53.328
46063W        W37987  35.725   5.256  51.521
46064W        W37988  47.192   9.283  52.439
46065W        W37989  12.259  16.273  51.961
46066W        W37990  19.742  45.680  50.598
46067W        W37991  32.734   1.770  53.779
46068W        W37992  27.742  41.195  50.595
46069W        W37993  20.731  44.692  51.960
46070W        W37994  12.280  31.710  51.957
46071W        W37995   3.286  37.205  51.060
46072W        W37996  25.255  15.731  51.966
46073W        W37997  36.194  22.715  52.437
46074W        W37998  18.251   6.259  49.673
46075W        W37999   8.764   4.774  51.074
46076W        W38000  14.255   4.754  50.138
46077W        W38001  12.269   5.243  50.602
46078W        W38002  22.732  36.214  51.528
46079W        W38003  44.714  44.197  51.036
46080W        W38004   1.758  21.245  50.611
46081W        W38005  16.769  14.748  50.144
46082W        W38006  14.737  27.711  51.535
46083W        W38007  44.191  26.755  50.594
46084W        W38008  11.748  32.717  53.797
46085W        W38009  23.760   0.759  51.513
46086W        W38010  18.246  40.218  50.133
46087W        W38011  36.734  14.758  50.580
46088W        W38012  43.222  11.267  52.439
46089W        W38013   9.760  14.234  51.523
46090W        W38014  28.751  40.207  51.949
46091W        W38015  21.243   1.769  52.409
46092W        W38016  13.263  23.740  51.045
46093W        W38017   0.251   3.773  49.694
46094W        W38018  34.700  33.232  50.606
46095W        W38019  35.722  13.728  52.438
46096W        W38020  18.250  22.724  52.428
46097W        W38021  10.765  16.229  52.445
46098W        W38022   0.254  30.230  53.358
46099W        W38023  44.679  42.699  52.869
46100W        W38024  32.209  29.241  52.420
46101W        W38025  11.739  32.208  53.779
46102W        W38026  17.734   1.758  51.076
46103W        W38027  20.219  22.248  51.991
46104W        W38028  27.221   0.779  50.591
46105W        W38029   6.779  30.712  50.610
46106W        W38030  31.717  24.759  50.593
46107W        W38031  32.228   7.278  50.124
46108W        W38032  11.245   2.782  52.444
46109W        W38033   2.290  12.739  53.360
46110W        W38034  18.744   2.746  51.496
46111W        W38035   0.292  19.725  50.584
46112W        W38036  34.714  26.720  52.435
46113W        W38037  34.736  35.231  53.777
46114W        W38038   1.287  30.206  52.421
46115W        W38039  27.252  35.708  50.595
46116W        W38040   4.766   5.282  53.784
46117W        W38041   6.248  41.716  49.704
46118W        W38042  29.236  13.745  49.707
46119W        W38043   8.238  19.752  52.891
46120W        W38044  44.706   4.263  53.328
46121W        W38045  12.753  24.716  50.121
46122W        W38046  20.735  20.220  53.324
46123W        W38047   1.263  19.263  51.498
46124W        W38048  43.697  37.696  53.349
46125W        W38049  47.198  27.730  53.799
46126W        W38050  44.182  38.228  49.691
46127W        W38051  25.231   6.257  51.521
46128W        W38052   6.788  31.721  50.616
46129W        W38053  21.749   9.767  53.346
46130W        W38054  44.216  29.227  51.065
46131W        W38055  47.713   5.247  49.677
46132W        W38056  12.231  47.191  51.075
46133W        W38057   2.746   6.278  51.507
46134W        W38058  41.216   9.738  49.676
46135W        W38059  29.728   7.263  50.165
46136W        W38060  31.236  31.731  49.690
46137W        W38061  13.251  15.275  51.500
46138W        W38062  16.267  28.238  51.991
46139W        W38063  31.225  47.204  51.951
46140W        W38064  27.222  19.749  52.887
46141W        W38065  18.752  36.212  50.155
46142W        W38066  39.727  26.248  53.780
46143W        W38067  35.194  43.693  49.699
46144W        W38068  35.696  29.231  51.980
46145W        W38069  32.223   1.757  52.443
46146W        W38070  20.754  46.193  51.970
46147W        W38071  42.693   6.271  51.497
46148W        W38072  48.208  36.190  50.585
46149W        W38073   2.261  11.236  50.154
46150W        W38074  47.708   6.764  50.600
46151W        W38075  25.231  39.201  49.677
46152W        W38076  26.743  45.193  52.421
46153W        W38077  41.194  21.747  51.492
46154W        W38078  17.769  33.721  51.054
46155W        W38079   9.775  22.227  52.891
46156W        W38080   1.770  11.780  53.781
46157W        W38081  46.185   5.753  52.881
46158W        W38082   5.770  17.758  49.685
46159W        W38083  45.687   3.285  50.604
46160W        W38084  22.749  21.720  53.776
46161W        W38085  26.737  21.741  53.361
46162W        W38086  15.750  43.687  50.585
46163W        W38087   3.265   4.247  53.333
46164W        W38088   3.248  39.194  51.977
46165W        W38089  12.263  26.751  49.692
46166W        W38090  40.202   6.253  52.884
46167W        W38091  25.713  29.207  52.444
46168W        W38092   9.279   8.272  51.977
46169W        W38093   0.289  38.687  53.355
46170W        W38094   3.291  39.715  51.058
46171W        W38095  17.762  44.686  51.502
46172W        W38096  26.743  32.206  50.125
46173W        W38097  12.250  40.224  51.535
46174W        W38098   2.761  46.716  49.668
46175W        W38099   4.291   3.766  50.144
46176W        W38100   0.276  23.755  51.511
46177W        W38101  38.199   3.777  53.776
46178W        W38102  14.233  42.193  52.417
46179W        W38103  38.193   3.293  51.967
46180W        W38104  37.731  24.719  51.515
46181W        W38105  43.195  25.709  51.060
46182W        W38106  10.774   7.243  51.988
46183W        W38107  48.177  14.746  53.796
46184W        W38108  17.738   7.784  53.807
46185W        W38109  23.229  43.220  52.867
46186W        W38110  29.249  15.255  51.984
46187W        W38111  45.189  13.734  52.900
46188W        W38112  15.273   0.783  51.950
46189W        W38113  36.716   7.270  51.988
46190W        W38114  44.183   8.780  51.983
46191W        W38115  24.717  31.736  52.882
46192W        W38116   7.252  17.735  49.673
46193W        W38117  14.259   9.736  49.690
46194W        W38118  11.747  29.204  50.601
46195W        W38119  30.220  40.223  50.616
46196W        W38120  35.214  10.746  53.797
46197W        W38121  24.210   4.747  49.700
46198W        W38122  14.758  13.253  51.502
46199W        W38123   8.255   5.290  53.789
46200W        W38124   1.751  39.197  49.681
46201W        W38125  36.723  17.765  53.320
46202W        W38126  12.242  47.697  50.147
46203W        W38127  40.696   4.788  51.499
46204W        W38128   2.771   3.749  51.980
46205W        W38129  12.770   6.281  50.132
46206W        W38130  38.220   1.279  51.964
46207W        W38131  44.691  37.719  50.606
46208W        W38132  11.774  46.710  52.863
46209W        W38133  37.228   3.283  50.594
46210W        W38134  20.758   6.265  51.061
46211W        W38135  27.227   0.778  51.061
46212W        W38136  18.236   6.752  50.598
46213W        W38137   2.765  32.711  52.446
46214W        W38138   6.760  24.758  50.614
46215W        W38139  14.765   9.765  50.129
46216W        W38140  47.186  36.737  52.435
46217W        W38141  42.716   6.768  50.595
46218W        W38142  35.704  20.758  51.969
46219W        W38143  27.717  43.226  51.977
46220W        W38144  11.235  19.727  50.147
46221W        W38145   6.749  18.726  49.666
46222W        W38146   1.292  29.705  53.340
46223W        W38147  32.721  23.244  52.405
46224W        W38148   7.787  18.751  53.317
46225W        W38149  26.235   4.258  52.879
46226W        W38150  41.731  35.229  50.127
46227W        W38151  42.695  39.233  53.353
46228W        W38152   2.786  27.738  51.061
46229W        W38153  15.766  36.726  50.125
46230W        W38154   4.777  13.275  50.588
46231W        W38155  36.218  37.689  51.052
46232W        W38156  15.228  46.222  51.965
46233W        W38157  33.235  29.748  52.406
46234W        W38158  13.768  24.720  50.150
46235W        W38159  21.243  16.229  53.790
46236W        W38160  17.243  35.226  51.062
46237W        W38161  28.216  18.258  52.893
46238W        W38162  44.201  37.732  53.331
46239W        W38163   7.241   6.777  51.043
46240W        W38164  15.240  44.198  51.977
46241W        W38165  37.208  18.241  52.404
46242W        W38166   0.777  39.729  52.419
46243W        W38167  35.200  45.180  52.438
46244W        W38168  15.241  20.246  52.414
46245W        W38169   3.747  35.725  50.139
46246W        W38170   3.761  12.254  50.585
46247W        W38171  18.267   3.778  53.813
46248W        W38172  15.766  29.722  52.414
46249W        W38173  30.746   4.248  50.582
46250W        W38174   4.749  11.236  51.041
46251W        W38175  44.222  36.732  50.134
46252W        W38176   2.784  16.246  52.404
46253W        W38177  10.780  24.716  50.153
46254W        W38178  28.207  14.754  51.525
46255W        W38179  20.735  11.275  50.165
46256W        W38180  19.249  24.230  53.361
46257W        W38181  19.760  40.227  50.609
46258W        W38182  37.701  40.706  50.598
46259W        W38183  43.211  27.733  51.976
46260W        W38184   8.259  14.742  51.079
46261W        W38185  29.744  18.240  51.050
46262W        W38186  26.717  44.694  49.685
46263W        W38187  35.723  16.745  51.035
46264W        W38188  16.730  27.715  49.692
46265W        W38189  23.730  44.677  53.797
46266W        W38190   5.272  21.756  51.530
46267W        W38191  31.216  34.207  53.801
46268W        W38192  40.231  24.257  53.797
46269W        W38193  31.706  38.718  53.772
46270W        W38194  32.714  15.744  50.140
46271W        W38195  17.737  21.251  51.068
46272W        W38196  14.233  10.257  51.533
46273W        W38197   1.297  35.208  50.160
46274W        W38198  31.729  11.737  52.868
46275W        W38199  25.257  14.730  52.448
46276W        W38200  34.736  40.227  51.071
46277W        W38201   5.278  18.749  50.585
46278W        W38202  16.245   8.246  53.792
46279W        W38203  39.199  30.209  50.610
46280W        W38204  11.265  44.199  51.075
46281W        W38205  25.226  48.206  50.591
46282W        W38206   4.248  12.747  53.346
46283W        W38207  14.734  34.214  53.787
46284W        W38208  45.201  37.209  52.893
46285W        W38209  26.709  16.271  50.601
46286W        W38210  21.261  28.232  49.688
46287W        W38211  40.211  43.684  50.597
46288W        W38212   7.777  46.719  51.992
46289W        W38213  22.754  23.754  50.616
46290W        W38214  40.198  15.761  49.699
46291W        W38215  30.220  31.744  52.898
46292W        W38216  39.709  16.763  50.606
46293W        W38217  47.192  37.228  52.860
46294W        W38218  48.184  42.225  51.957
46295W        W38219  46.720  19.244  50.126
46296W        W38220  25.211  36.209  52.443
46297W        W38221  34.707   6.763  53.817
46298W        W38222   6.283  15.261  51.961
46299W        W38223   2.246  22.245  51.510
46300W        W38224   8.255  22.749  50.578
46301W        W38225   3.787  19.733  52.875
46302W        W38226  31.699  46.703  51.490
46303W        W38227  26.248  46.206  52.433
46304W        W38228  40.722  42.226  51.037
46305W        W38229  13.750  31.720  50.137
46306W        W38230  31.723  33.239  51.517
46307W        W38231   1.292  34.730  53.344
46308W        W38232  41.200  13.739  52.901
46309W        W38233  37.229  30.719  53.336
46310W        W38234   6.287  47.699  53.776
46311W        W38235  16.770  14.734  51.037
46312W        W38236  30.242  32.209  52.435
46313W        W38237  23.233  36.732  51.974
46314W        W38238  34.730   8.256  53.358
46315W        W38239  40.200  44.720  50.154
46316W        W38240  27.710  16.226  53.803
46317W        W38241  15.735   0.787  53.325
46318W        W38242   6.270  24.730  52.878
46319W        W38243   5.263  29.215  51.064
46320W        W38244  41.716  10.275  50.606
46321W        W38245   4.266  47.690  52.419
46322W        W38246   5.785  41.717  52.414
46323W        W38247  23.721  43.679  51.066
46324W        W38248  30.728  42.694  51.069
46325W        W38249  36.226  34.228  53.348
46326W        W38250   4.287  19.730  51.065
46327W        W38251   4.265  11.760  53.793
46328W        W38252  33.209  22.245  53.350
46329W        W38253  36.220  22.234  51.975
46330W        W38254   3.767  43.194  50.123
46331W        W38255  47.189  11.751  51.048
46332W        W38256  30.726  19.237  52.866
46333W        W38257   9.745   3.270  51.519
46334W        W38258  16.268  27.239  51.531
46335W        W38259  45.720  10.759  50.581
46336W        W38260  11.754  15.747  50.141
46337W        W38261   0.294  11.246  53.790
46338W        W38262  24.243  17.759  53.801
46339W        W38263  31.721  41.702  51.492
46340W        W38264  34.225  27.723  52.902
46341W        W38265  10.270   7.280  51.058
46342W        W38266  44.725  29.746  50.588
46343W        W38267  34.195  11.232  51.039
46344W        W38268  36.195   7.250  52.431
46345W        W38269  17.738  28.212  50.147
46346W        W38270  45.223  24.257  50.602
46347W        W38271  29.741  12.250  52.408
46348W        W38272   5.755  36.231  49.670
46349W        W38273  31.199  13.269  51.513
46350W        W38274  36.703  17.243  53.801
46351W        W38275  42.189  25.220  53.809
46352W        W38276   6.281  11.765  50.137
46353W        W38277   7.249   0.275  53.808
46354W        W38278  34.208  47.672  50.156
46355W        W38279  35.241  46.188  51.987
46356W        W38280  24.735  45.695  53.816
46357W        W38281  46.189   3.793  51.962
46358W        W38282   4.271  46.177  49.674
46359W        W38283  43.710  19.224  51.532
46360W        W38284  19.727  15.274  51.985
46361W        W38285  13.276  19.267  52.871
46362W        W38286  12.267  25.743  52.408
46363W        W38287  27.720  21.245  52.884
46364W        W38288   6.274  14.769  51.045
46365W        W38289  37.736  29.217  53.792
46366W        W38290  30.735  26.719  50.127
46367W        W38291  11.763  48.218  51.988
46368W        W38292  45.188  30.725  51.533
46369W        W38293   9.772  10.741  53.778
46370W        W38294  38.217  29.248  53.780
46371W        W38295  43.703  15.757  50.124
46372W        W38296  25.752  17.270  49.675
46373W        W38297  37.710   5.783  51.053
46374W        W38298  42.224  15.251  51.066
46375W        W38299  44.684   0.752  52.405
46376W        W38300  14.271  47.709  51.983
46377W        W38301  27.216   8.743  50.582
46378W        W38302  43.699  26.222  50.154
46379W        W38303  25.218   3.761  52.883
46380W        W38304   6.281  33.230  49.666
46381W        W38305  26.237  44.197  53.784
46382W        W38306  38.709  21.735  50.588
46383W        W38307  44.186  46.218  52.442
46384W        W38308  31.716   7.750  52.414
46385W        W38309  35.727  22.246  52.898
46386W        W38310  13.770   6.772  52.901
46387W        W38311  33.226  37.223  53.789
46388W        W38312   6.281   1.755  52.409
46389W        W38313  24.235  22.263  53.328
46390W        W38314  14.269  19.735  52.406
46391W        W38315   9.757   9.275  50.136
46392W        W38316  15.261  47.176  53.337
46393W        W38317   1.776  45.711  49.670
46394W        W38318  43.723  11.271  52.444
46395W        W38319  47.702   4.748  53.359
46396W        W38320   0.755  11.260  50.587
46397W        W38321  28.706  46.202  53.808
46398W        W38322  21.243  39.699  49.669
46399W        W38323  37.207  27.738  50.135
46400W        W38324  25.213  41.722  51.045
46401W        W38325  25.725  26.248  51.504
46402W        W38326  48.174  42.189  53.327
46403W        W38327  46.194  33.244  51.074
46404W        W38328  21.756   4.748  53.319
46405W        W38329  19.251  36.214  50.594
46406W        W38330  33.708  44.218  51.505
46407W        W38331  10.258  16.258  51.981
46408W        W38332   5.752  20.230  52.422
46409W        W38333  39.218  46.223  52.882
46410W        W38334  20.736  19.232  49.679
46411W        W38335  42.707  17.736  52.883
46412W        W38336  32.233  46.200  53.329
46413W        W38337  31.200  44.717  50.153
46414W        W38338  17.224  36.708  52.892
46415W        W38339  29.743  21.243  53.335
46416W        W38340  32.242  38.725  53.342
46417W        W38341  30.226  41.212  52.864
46418W        W38342   4.755  44.694  51.043
46419W        W38343   5.745  34.226  50.585
46420W        W38344  34.741  24.211  51.985
46421W        W38345  34.729  29.750  52.901
46422W        W38346   7.738  46.192  51.068
46423W        W38347   9.776  25.214  53.358
46424W        W38348   1.783   3.262  50.143
46425W        W38349  10.272  21.231  51.513
46426W        W38350  36.210  32.237  52.904
46427W        W38351  33.705  36.732  52.903
46428W        W38352  39.213  16.725  52.414
46429W        W38353  11.737   5.784  51.982
46430W        W38354  24.224  42.715  52.872
46431W        W38355  38.212   8.738  51.965
46432W        W38356  12.774  38.226  51.971
46433W        W38357  47.673   8.761  53.786
46434W        W38358  42.186   1.279  52.420
46435W        W38359  33.716   8.248  53.318
46436W        W38360  47.690  30.711  50.128
46437W        W38361   7.740   7.268  51.963
46438W        W38362  35.214  22.250  50.584
46439W        W38363  28.230  29.249  52.403
46440W        W38364  38.219  31.732  52.435
46441W        W38365  19.736  27.737  51.043
46442W        W38366  19.767   7.278  52.893
46443W        W38367  29.720  20.748  53.338
46444W        W38368  47.187  20.255  50.604
46445W        W38369   4.754   4.279  51.972
46446W        W38370  26.234  11.274  50.609
46447W        W38371   8.277  33.209  53.784
46448W        W38372  26.733   6.258  51.985
46449W        W38373   9.258  32.713  51.044
46450W        W38374  14.765   1.297  52.444
46451W        W38375   8.237  33.696  51.060
46452W        W38376  16.227  47.679  53.810
46453W        W38377  40.711  13.263  50.615
46454W        W38378  41.220   5.758  51.957
46455W        W38379  27.714  11.268  52.432
46456W        W38380  37.718  28.719  53.342
46457W        W38381  31.232  21.245  53.810
46458W        W38382  10.239   7.785  49.678
46459W        W38383  45.684  48.171  53.348
46460W        W38384  39.699   8.267  51.492
46461W        W38385  12.256  41.230  52.413
46462W        W38386  27.716  24.750  51.049
46463W        W38387  30.222  35.710  49.685
46464W        W38388  15.245  12.731  53.788
46465W        W38389  10.765  28.244  51.517
46466W        W38390  19.263  17.268  53.817
46467W        W38391  36.694  47.179  52.902
46468W        W38392  48.174   4.749  53.355
46469W        W38393  38.195  12.255  52.425
46470W        W38394  22.250  14.748  52.437
46471W        W38395  19.763  44.199  53.345
46472W        W38396   6.283  20.730  52.886
46473W        W38397  20.756  21.244  52.878
46474W        W38398  16.770  12.742  52.429
46475W        W38399  36.214   4.788  51.074
46476W        W38400  20.724  30.705  51.060
46477W        W38401  47.201  36.703  49.680
46478W        W38402   7.281  22.733  51.533
46479W        W38403  28.740  43.683  53.359
46480W        W38404  36.215  41.689  52.421
46481W        W38405  28.748  22.243  50.129
46482W        W38406   0.770  44.180  49.668
46483W        W38407  14.763   9.770  51.502
46484W        W38408   6.753   1.256  50.589
46485W        W38409  21.239  43.225  53.344
46486W        W38410  30.743  27.214  50.597
46487W        W38411  24.719  32.703  53.335
46488W        W38412  18.753  22.228  49.678
46489W        W38413  14.741  35.194  49.688
46490W        W38414  32.209  35.202  53.803
46491W        W38415  26.253  23.751  50.600
46492W        W38416  44.217  22.739  51.987
46493W        W38417  36.694   5.772  51.973
46494W        W38418   1.793  38.191  52.434
46495W        W38419  41.691  18.251  53.360
46496W        W38420  19.263  18.245  49.681
46497W        W38421  23.219   6.251  50.162
46498W        W38422  25.220  26.208  49.688
46499W        W38423  36.202  46.689  50.160
46500W        W38424  13.745  42.201  52.405
46501W        W38425  12.764  43.717  49.667
46502W        W38426  31.213  45.680  51.040
46503W        W38427  25.226  17.738  53.772
46504W        W38428  20.718   2.273  50.160
46505W        W38429   5.247   2.288  53.335
46506W        W38430   1.779  20.264  51.052
46507W        W38431  23.215  13.276  51.078
46508W        W38432  28.232  17.742  52.439
46509W        W38433  42.724  34.698  53.338
46510W        W38434  13.757  19.221  49.710
46511W        W38435  10.749  33.728  53.326
46512W        W38436  31.715  18.233  51.982
46513W        W38437  43.225  45.716  50.127
46514W        W38438  16.770   4.256  50.614
46515W        W38439  37.238  25.718  53.327
46516W        W38440  10.260  29.240  50.151
46517W        W38441  34.715  28.708  53.817
46518W        W38442  18.253  29.206  49.684
46519W        W38443  21.262  18.230  53.776
46520W        W38444  21.258   6.784  50.621
46521W        W38445  18.736  30.732  52.407
46522W        W38446  19.254  24.257  51.498
46523W        W38447  46.679   3.282  49.665
46524W        W38448  44.721   4.767  53.812
46525W        W38449   6.772  17.229  49.674
46526W        W38450  20.716  19.764  50.620
46527W        W38451   0.251  45.187  52.441
46528W        W38452  25.732  29.726  52.404
46529W        W38453  33.707  46.186  49.700
46530W        W38454  43.690  32.744  51.035
46531W        W38455  25.213  27.224  53.798
46532W        W38456  36.233  35.709  51.497
46533W        W38457  18.740  45.700  49.710
46534W        W38458  14.269  23.741  50.134
46535W        W38459  15.767  13.243  49.703
46536W        W38460  45.215  14.760  51.975
46537W        W38461  39.198  44.179  49.708
46538W        W38462  35.204  44.215  50.121
46539W        W38463  37.192  25.708  51.039
46540W        W38464   2.262  10.761  51.079
46541W        W38465  33.234  15.740  52.901
46542W        W38466  29.236   3.767  52.436
46543W        W38467  29.719  27.232  50.128
46544W        W38468   9.735  18.262  52.435
46545W        W38469  27.741  42.696  51.985
46546W        W38470  17.737  37.732  52.426
46547W        W38471  14.736  20.723  51.530
46548W        W38472  42.223   8.772  52.900
46549W        W38473  18.266  40.690  53.337
46550W        W38474  44.689  16.728  51.070
46551W        W38475   2.780  22.749  53.816
46552W        W38476  23.728  36.226  51.055
46553W        W38477  18.258  30.239  50.136
46554W        W38478  33.737  18.733  50.595
46555W        W38479  39.688  27.232  50.621
46556W        W38480   5.749  47.208  53.792
46557W        W38481  44.693  11.276  51.494
46558W        W38482  18.245  35.710  50.161
46559W        W38483  11.775  22.746  49.693
46560W        W38484  24.717  26.741  52.422
46561W        W38485  10.777  48.205  52.447
46562W        W38486  18.263  41.681  50.620
46563W        W38487   3.774   6.758  53.786
46564W        W38488  45.716  34.701  51.522
46565W        W38489  29.744  43.698  50.148
46566W        W38490  38.710  38.205  49.676
46567W        W38491   7.281   9.765  52.904
46568W        W38492   3.792   9.259  49.687
46569W        W38493  27.218  14.761  51.517
46570W        W38494  26.723  45.712  52.880
46571W        W38495  17.757  11.261  49.668
46572W        W38496  15.225   2.296  50.129
46573W        W38497  39.727  28.245  51.074
46574W        W38498  22.233  30.721  52.877
46575W        W38499  21.737   1.282  52.860
46576W        W38500  13.744  24.733  51.056
46577W        W38501  39.206  40.725  53.789
46578W        W38502  33.732  45.210  52.412
46579W        W38503  13.775  10.740  51.043
46580W        W38504  48.203  23.237  50.596
46581W        W38505  20.751   4.286  49.698
46582W        W38506  31.208  20.237  52.447
46583W        W38507  22.761  28.233  52.404
46584W        W38508  34.709  21.761  52.860
46585W        W38509  40.723   9.743  53.799
46586W        W38510  20.257  46.174  50.602
46587W        W38511  16.745  38.203  51.064
46588W        W38512  43.223  39.717  53.790
46589W        W38513  30.222  32.213  53.345
46590W        W38514  33.238  48.209  51.961
46591W        W38515  31.244  30.213  53.779
46592W        W38516  39.697  42.711  49.694
46593W        W38517   2.777  15.763  50.603
46594W        W38518  35.702  14.269  53.784
46595W        W38519  28.209  29.232  51.973
46596W        W38520  33.226   7.280  51.984
46597W        W38521  30.719  43.227  51.986
46598W        W38522  34.703  47.175  49.666
46599W        W38523   1.254  46.179  51.535
46600W        W38524   0.751  35.741  53.346
46601W        W38525  28.218  30.207  51.526
46602W        W38526  41.683  30.223  51.988
46603W        W38527  14.736  33.694  50.593
46604W        W38528   8.785  29.726  50.617
46605W        W38529   8.244   5.773  52.432
46606W        W38530  42.719  13.728  52.443
46607W        W38531  20.754  40.189  49.673
46608W        W38532  19.762  29.747  51.493
46609W        W38533   3.781  39.189  51.517
46610W        W38534   8.271  35.695  51.052
46611W        W38535  28.743  15.262  51.061
46612W        W38536  10.781  47.699  51.062
46613W        W38537  37.710  35.192  53.343
46614W        W38538  29.740  32.239  49.699
46615W        W38539  29.722  43.721  52.408
46616W        W38540  21.737   8.785  51.949
46617W        W38541   6.275   3.277  50.608
46618W        W38542  46.183   0.766  52.431
46619W        W38543  18.245  24.728  53.803
46620W        W38544  34.209  11.739  51.952
46621W        W38545  35.238   0.266  50.586
46622W        W38546  10.268  14.766  49.672
46623W        W38547   1.763  16.247  49.685
46624W        W38548   5.256  46.706  53.350
46625W        W38549  21.219  46.221  49.681
46626W        W38550  16.258  15.252  51.990
46627W        W38551  33.739   3.286  49.681
46628W        W38552  46.219  12.735  52.414
46629W        W38553  11.765  40.228  50.589
46630W        W38554  23.257  47.717  49.672
46631W        W38555  25.225  21.265  49.694
46632W        W38556  11.264  27.212  52.410
46633W        W38557  29.706  48.182  51.977
46634W        W38558  20.734  43.720  53.321
46635W        W38559  29.741   5.286  52.885
46636W        W38560  47.190  33.727  53.793
46637W        W38561  11.767  20.758  53.799
46638W        W38562  43.678   4.756  53.784
46639W        W38563  14.771  39.704  51.047
46640W        W38564   4.281   6.773  51.958
46641W        W38565  38.231  43.703  53.786
46642W        W38566  47.681  40.222  49.672
46643W        W38567   0.784  33.219  51.042
46644W        W38568   1.289   8.243  51.493
46645W        W38569   3.762  36.214  50.131
46646W        W38570  31.202   1.262  51.512
46647W        W38571  12.249  12.271  50.601
46648W        W38572  24.210  42.729  52.439
46649W        W38573  16.725  43.197  53.812
46650W        W38574  12.274  27.709  49.675
46651W        W38575  33.227  17.246  49.700
46652W        W38576  13.262  35.704  53.790
46653W        W38577  15.766  20.717  51.495
46654W        W38578  39.205  18.235  50.598
46655W        W38579  42.728  32.235  50.611
46656W        W38580  42.183  39.708  52.428
46657W        W38581  24.745  23.235  52.876
46658W        W38582  42.219  43.714  51.985
46659W        W38583  12.735  44.200  51.519
46660W        W38584  13.758  17.765  53.802
46661W        W38585   5.773   9.241  51.530
46662W        W38586  32.220  14.751  53.327
46663W        W38587  29.735   6.756  51.978
46664W        W38588  16.760  39.720  51.042
46665W        W38589  20.217  38.213  52.404
46666W        W38590  23.751  15.245  53.798
46667W        W38591   3.748  29.713  51.987
46668W        W38592  17.256  31.217  53.797
46669W        W38593  37.216  36.738  49.673
46670W        W38594  44.719   0.785  52.864
46671W        W38595   7.278  19.232  52.882
46672W        W38596  35.201   6.246  53.328
46673W        W38597   8.262   9.251  52.901
46674W        W38598   6.264  17.225  53.774
46675W        W38599  12.256  20.733  52.895
46676W        W38600   7.275  29.229  52.425
46677W        W38601   5.285  15.769  52.432
46678W        W38602   0.781  20.261  50.149
46679W        W38603  14.275  48.212  52.448
46680W        W38604  36.717  46.210  53.799
46681W        W38605  18.763  16.263  50.147
46682W        W38606   5.761  26.711  52.428
46683W        W38607   7.778  23.744  51.956
46684W        W38608  11.770   8.777  49.670
46685W        W38609   6.760  46.193  51.535
46686W        W38610  32.246  26.236  53.358
46687W        W38611   2.776  37.708  53.360
46688W        W38612  47.220  10.252  52.890
46689W        W38613  12.244   7.738  52.879
46690W        W38614  32.723  40.204  53.795
46691W        W38615   7.285  16.224  51.949
46692W        W38616   2.283   5.782  50.589
46693W        W38617  32.243  14.257  51.501
46694W        W38618  45.682  26.739  50.595
46695W        W38619  34.222   7.251  49.700
46696W        W38620  31.711  15.769  52.426
46697W        W38621  15.253  19.766  50.620
46698W        W38622  15.241  13.239  49.686
46699W        W38623  43.210  40.233  50.154
46700W        W38624  45.722  25.238  53.330
46701W        W38625  15.744  39.217  51.051
46702W        W38626  35.213  33.711  52.903
46703W        W38627   3.269  11.252  52.859
46704W        W38628  48.215  43.712  50.583
46705W        W38629  30.742  36.700  51.043
46706W        W38630  37.731  16.255  52.860
46707W        W38631  24.758  14.232  51.074
46708W        W38632   6.743  44.189  53.810
46709W        W38633   4.777   8.761  52.426
46710W        W38634  35.205  41.214  52.420
46711W        W38635  26.225  41.197  51.958
46712W        W38636  39.725  16.757  53.799
46713W        W38637  43.192  42.214  53.325
46714W        W38638  13.240  13.263  52.900
46715W        W38639   9.243   3.761  50.158
46716W        W38640  23.720  41.712  51.071
46717W        W38641  23.226   3.761  49.680
46718W        W38642  24.738  16.751  50.132
46719W        W38643  10.282  14.750  50.147
46720W        W38644  12.273  44.214  53.340
46721W        W38645  41.687   3.258  51.515
46722W        W38646   8.256  18.243  51.499
46723W        W38647  40.720  23.730  52.415
46724W        W38648  18.231  18.746  52.433
46725W        W38649  33.739  28.748  51.975
46726W        W38650  13.258  43.682  51.988
46727W        W38651  46.174  31.243  53.816
46728W        W38652   9.276  44.681  51.070
46729W        W38653  10.755  28.729  53.353
46730W        W38654  24.248   6.268  52.420
46731W        W38655  15.751  26.214  50.143
46732W        W38656  39.728  34.725  50.596
46733W        W38657  32.236   1.774  51.493
46734W        W38658  16.726  21.754  52.871
46735W        W38659  43.181  43.706  51.043
46736W        W38660  32.219  39.186  50.163
46737W        W38661  31.219  41.726  53.802
46738W        W38662  39.709  33.713  49.705
46739W        W38663  15.752  14.251  49.700
46740W        W38664  20.765  24.714  50.127
46741W        W38665   0.256  44.718  51.523
46742W        W38666   2.253  13.249  50.128
46743W        W38667  47.679  35.215  51.526
46744W        W38668  10.235  30.230  51.976
46745W        W38669  44.706  25.248  51.515
46746W        W38670  36.220  42.197  53.347
46747W        W38671   2.749  34.199  52.888
46748W        W38672  25.726   8.743  51.051
46749W        W38673  17.749  46.198  50.584
46750W        W38674  15.244  11.247  53.815
46751W        W38675  37.716  28.216  50.145
46752W        W38676  47.202   5.745  50.127
46753W        W38677  36.724   7.740  50.580
46754W        W38678  36.211  13.752  49.691
46755W        W38679  29.724  21.236  51.529
46756W        W38680  43.208  35.215  52.433
46757W        W38681  39.198  28.237  52.431
46758W        W38682  39.698  30.205  51.048
46759W        W38683  10.260  43.183  52.861
46760W        W38684  29.729  39.226  51.979
46761W        W38685  43.191  24.721  52.903
46762W        W38686  20.737  10.761  52.875
46763W        W38687   3.273  16.770  51.510
46764W        W38688   3.754  36.728  51.983
46765W        W38689   1.791  42.223  51.060
46766W        W38690  39.214   6.288  51.958
46767W        W38691  47.696   9.742  53.814
46768W        W38692  41.719  10.768  52.410
46769W        W38693   8.273  27.737  50.134
46770W        W38694  36.196  28.251  51.503
46771W        W38695   4.752  42.222  53.788
46772W        W38696  40.209  19.757  50.609
46773W        W38697   5.761  21.235  51.977
46774W        W38698  43.714  47.185  50.122
46775W        W38699  47.716  42.721  53.348
46776W        W38700  26.256  45.709  53.356
46777W        W38701  39.213  46.193  49.668
46778W        W38702  13.729  32.221  53.781
46779W        W38703   3.293  42.201  51.973
46780W        W38704  41.695   4.779  50.594
46781W        W38705  23.244  27.732  53.339
46782W        W38706  44.177  10.749  49.692
46783W        W38707  39.698   5.751  49.704
46784W        W38708  46.694  18.745  50.152
46785W        W38709  16.756  10.735  51.058
46786W        W38710  25.257  33.703  49.703
46787W        W38711   6.252  27.224  51.074
46788W        W38712  10.767   3.787  52.422
46789W        W38713   2.774  27.223  51.528
46790W        W38714   5.761  11.239  51.983
46791W        W38715  24.732  20.244  50.596
46792W        W38716  44.211  18.726  50.152
46793W        W38717  37.230  45.190  53.356
46794W        W38718  40.223  19.725  53.795
46795W        W38719   6.769  16.760  51.070
46796W        W38720  19.741  14.243  51.972
46797W        W38721   4.758  11.755  53.329
46798W        W38722  28.246  33.206  51.502
46799W        W38723  43.688  24.717  51.050
46800W        W38724  27.751   2.262  53.350
46801W        W38725  44.683   9.271  51.991
46802W        W38726  37.710  41.705  53.353
46803W        W38727  29.706  40.692  52.894
46804W        W38728  11.242  10.263  49.683
46805W        W38729   6.768  27.221  50.605
46806W        W38730   0.285  43.223  51.079
46807W        W38731   9.756  39.187  51.074
46808W        W38732  32.734  29.246  50.164
46809W        W38733  41.709  18.261  51.494
46810W        W38734  35.722  12.247  53.340
46811W        W38735  24.252   4.761  52.897
46812W        W38736  18.251   4.283  51.966
46813W        W38737  11.264  17.763  53.810
46814W        W38738  34.731  22.234  53.328
46815W        W38739  47.205  21.240  51.504
46816W        W38740  45.696  17.224  50.583
46817W        W38741   4.763  31.203  51.044
46818W        W38742   6.755  14.245  53.777
46819W        W38743  32.221  43.181  53.347
46820W        W38744  42.190   3.757  50.584
46821W        W38745   4.762  12.760  52.433
46822W        W38746  47.175  27.251  51.969
46823W        W38747  39.704   2.748  51.502
46824W        W38748  35.200  48.176  51.058
46825W        W38749  15.764   8.780  53.331
46826W        W38750  41.711  41.223  53.805
46827W        W38751  24.222   6.778  52.868
46828W        W38752  18.724   0.779  52.861
46829W        W38753  20.217  40.193  51.509
46830W        W38754  41.211  47.210  53.779
46831W        W38755  32.721  23.734  50.160
46832W        W38756   0.796  43.225  52.895
46833W        W38757  27.221   9.773  51.058
46834W        W38758   5.746  26.256  51.989
46835W        W38759  43.720  29.708  52.421
46836W        W38760  29.229   3.275  50.164
46837W        W38761  46.676  15.736  51.041
46838W        W38762  16.760  45.700  50.617
46839W        W38763  12.247  25.734  51.513
46840W        W38764  43.703  46.192  50.147
46841W        W38765  48.181   4.256  53.810
46842W        W38766  13.743  19.750  51.969
46843W        W38767   8.286   8.760  53.319
46844W        W38768  13.270  16.261  50.598
46845W        W38769  27.208   4.277  52.438
46846W        W38770  44.189  41.220  50.583
46847W        W38771  18.748  36.733  52.885
46848W        W38772   3.249  28.721  52.442
46849W        W38773   0.288   9.734  53.316
46850W        W38774  19.759  10.776  52.443
46851W        W38775  24.729  44.210  53.330
46852W        W38776  11.768  14.232  50.606
46853W        W38777  11.771  46.685  49.694
46854W        W38778  26.227  24.225  51.960
46855W        W38779  15.236  35.717  51.042
46856W        W38780  35.236  19.264  50.596
46857W        W38781  26.711  46.719  50.591
46858W        W38782  40.231  27.750  51.972
46859W        W38783  11.244  25.245  52.434
46860W        W38784  36.231  27.214  51.511
46861W        W38785  44.717  25.233  50.158
46862W        W38786  36.196  40.187  51.044
46863W        W38787  27.711   9.735  49.704
46864W        W38788  22.234  33.740  52.445
46865W        W38789  14.274  29.721  52.891
46866W        W38790  27.713  29.224  53.790
46867W        W38791  31.737  13.731  52.424
46868W        W38792  21.759   2.785  52.897
46869W        W38793  25.240  42.187  50.150
46870W        W38794   8.246  35.222  52.892
46871W        W38795   0.787  23.235  49.702
46872W        W38796  23.750  20.748  51.989
46873W        W38797  29.241  14.229  50.595
46874W        W38798  22.256  41.207  51.533
46875W        W38799  37.692  46.216  49.684
46876W        W38800  45.181  39.231  52.868
46877W        W38801  33.695  41.686  49.702
46878W        W38802  32.198  38.187  50.145
46879W        W38803  33.697  38.206  52.420
46880W        W38804  47.179  43.213  53.337
46881W        W38805   8.262  21.237  50.605
46882W        W38806   7.256  46.708  50.603
46883W        W38807  39.704  21.742  50.141
46884W        W38808   3.750  44.685  49.686
46885W        W38809  25.236  13.754  52.869
46886W        W38810  42.702  34.242  51.526
46887W        W38811  32.221  22.727  49.668
46888W        W38812  33.208  43.681  50.132
46889W        W38813  11.257  44.682  52.422
46890W        W38814  36.225  21.235  53.340
46891W        W38815  39.702   7.740  52.424
46892W        W38816  18.728  18.748  51.982
46893W        W38817   7.780  25.740  49.687
46894W        W38818   1.297  42.200  50.124
46895W        W38819  38.210   5.747  50.622
46896W        W38820  17.267  27.233  52.414
46897W        W38821  42.216  28.231  53.800
46898W        W38822  43.227   4.286  50.592
46899W        W38823   1.794  43.204  53.782
46900W        W38824  28.721  41.728  51.041
46901W        W38825  40.696  13.772  53.335
46902W        W38826  44.186  47.682  51.073
46903W        W38827  37.190  38.727  53.802
46904W        W38828  47.181   9.263  51.530
46905W        W38829  14.252  31.237  49.684
46906W        W38830  33.224   0.267  50.160
46907W        W38831   1.760  17.758  50.603
46908W        W38832  18.765  37.216  53.333
46909W        W38833  41.721  15.740  49.679
46910W        W38834   3.784  17.265  49.688
46911W        W38835  12.742  31.738  53.340
46912W        W38836  15.759  46.186  52.443
46913W        W38837  45.210  33.697  50.143
46914W        W38838  28.237   1.284  52.860
46915W        W38839  24.755  20.257  52.880
46916W        W38840  23.256  21.251  53.322
46917W        W38841  29.231  26.208  51.039
46918W        W38842  43.705  19.255  50.140
46919W        W38843  38.711  34.721  50.601
46920W        W38844  26.209  42.204  49.681
46921W        W38845   8.258  13.262  52.881
46922W        W38846  25.743  12.259  52.890
46923W        W38847  16.764  43.727  50.123
46924W        W38848  23.250  27.215  50.158
46925W        W38849  42.213  42.704  49.680
46926W        W38850   2.789  22.224  53.807
46927W        W38851  24.746  29.735  50.132
46928W        W38852   0.789  32.198  51.504
46929W        W38853  23.245  13.771  52.873
46930W        W38854  40.717  19.234  52.423
46931W        W38855  39.715  37.218  53.319
46932W        W38856   0.290  36.212  52.886
46933W        W38857  15.262   4.760  52.433
46934W        W38858  36.215  42.700  51.521
46935W        W38859  41.703  15.256  49.687
46936W        W38860  27.249  26.730  52.445
46937W        W38861  37.704  45.692  53.799
46938W        W38862  26.239  22.223  51.056
46939W        W38863  16.763  46.197  53.783
46940W        W38864   0.778  29.204  53.326
46941W        W38865  47.674   7.762  49.688
46942W        W38866   8.246  29.719  50.581
46943W        W38867  31.244  14.760  50.595
46944W        W38868  14.774  19.745  49.682
46945W        W38869  19.265  28.223  51.053
46946W        W38870  23.231  13.731  52.440
46947W        W38871  38.725  26.241  49.674
46948W        W38872  39.234   9.245  49.676
46949W        W38873  38.724  26.224  51.533
46950W        W38874  35.216  11.744  50.596
46951W        W38875   6.244  17.735  52.873
46952W        W38876  15.732  32.240  50.617
46953W        W38877  41.719  26.217  49.666
46954W        W38878  43.202  28.205  53.346
46955W        W38879  19.243  18.250  53.340
46956W        W38880  31.204  13.243  50.155
46957W        W38881  37.190  11.270  53.802
46958W        W38882  30.709   0.263  49.676
46959W        W38883  15.242  30.213  53.774
46960W        W38884  18.234  11.768  53.359
46961W        W38885  33.713   8.745  53.812
46962W        W38886  42.703  47.187  53.330
46963W        W38887  24.721   0.294  50.141
46964W        W38888  10.739  16.268  53.318
46965W        W38889  22.235  37.211  51.039
46966W        W38890  37.717  46.682  53.349
46967W        W38891  35.732  38.723  51.952
46968W        W38892  28.703   7.268  50.151
46969W        W38893   8.276  12.735  51.502
46970W        W38894  15.226   6.740  51.979
46971W        W38895  16.758  39.696  51.510
46972W        W38896  34.703  26.733  51.047
46973W        W38897  33.709  13.237  50.590
46974W        W38898  31.205  46.716  51.523
46975W        W38899  22.723  28.253  51.531
46976W        W38900  14.756  11.779  50.132
46977W        W38901  14.754  42.716  53.804
46978W        W38902  12.741  38.707  53.781
46979W        W38903  28.728   5.245  50.129
46980W        W38904  41.196   4.246  51.496
46981W        W38905   5.255  12.759  51.046
46982W        W38906  48.192  10.777  52.448
46983W        W38907  13.729  47.696  51.075
46984W        W38908  45.224  15.757  53.782
46985W        W38909  47.693  29.712  52.894
46986W        W38910  26.244  16.755  50.147
46987W        W38911  45.225   4.775  51.055
46988W        W38912  34.717  34.729  50.587
46989W        W38913  10.744  33.220  50.614
46990W        W38914  35.220   7.764  51.988
46991W        W38915   7.257  45.190  53.339
46992W        W38916   3.787  48.190  51.958
46993W        W38917  40.718  10.767  51.514
46994W        W38918  11.267   8.240  51.951
46995W        W38919  38.227  23.743  51.040
46996W        W38920  32.241  14.235  49.667
46997W        W38921  34.724  23.735  52.412
46998W        W38922  13.735  30.209  50.121
46999W        W38923  20.719  23.216  50.141
47000W        W38924  30.200  27.750  51.511
47001W        W38925   3.787  21.718  53.333
47002W        W38926  40.211  15.752  51.050
47003W        W38927  17.728   6.260  51.498
47004W        W38928  39.693  39.722  51.073
47005W        W38929  27.246  24.244  51.067
47006W        W38930  43.221  11.769  50.598
47007W        W38931  38.735  30.720  52.445
47008W        W38932  42.183  40.197  49.687
47009W        W38933  10.278  20.239  52.417
47010W        W38934  24.246  13.748  50.151
47011W        W38935  47.183  12.270  52.437
47012W        W38936  38.726  27.252  51.068
47013W        W38937   6.770   9.778  52.885
47014W        W38938  15.762  21.737  53.317
47015W        W38939  38.200  21.231  51.054
47016W        W38940  16.241  36.193  53.793
47017W        W38941  23.247  32.696  51.533
47018W        W38942  14.762   6.290  50.591
47019W        W38943  30.224  17.241  51.054
47020W        W38944   0.288  48.172  51.494
47021W        W38945  36.713  14.238  53.327
47022W        W38946  10.748  21.228  53.810
47023W        W38947  25.230  20.760  52.428
47024W        W38948  16.231   2.284  53.799
47025W        W38949  23.715  30.248  52.410
47026W        W38950   0.798   6.786  50.126
47027W        W38951  22.235  14.775  53.326
47028W        W38952  45.183   5.775  53.806
47029W        W38953  40.189  13.768  53.797
47030W        W38954  14.265  42.187  53.793
47031W        W38955  34.714  40.196  52.423
47032W        W38956  23.759  26.746  51.532
47033W        W38957  22.242   0.294  52.864
47034W        W38958  34.722  44.724  51.047
47035W        W38959  39.233  39.708  53.345
47036W        W38960  36.213  16.251  53.775
47037W        W38961  40.227  41.187  51.986
47038W        W38962  13.245   8.267  52.428
47039W        W38963  47.189  41.203  51.526
47040W        W38964  22.750  13.770  51.076
47041W        W38965  46.695  15.249  53.813
47042W        W38966  24.226  31.243  51.522
47043W        W38967  18.258  27.736  50.605
47044W        W38968  14.229  47.696  50.136
47045W        W38969  35.700  22.729  49.670
47046W        W38970  20.252  32.709  51.987
47047W        W38971   1.281   3.261  53.775
47048W        W38972   7.769   8.773  52.887
47049W        W38973  41.721  33.209  51.508
47050W        W38974  13.261  20.730  51.038
47051W        W38975  26.223  11.755  53.815
47052W        W38976  46.192  41.698  53.351
47053W        W38977  16.227  44.691  52.407
47054W        W38978  41.229   1.259  50.582
47055W        W38979  17.223  42.209  49.707
47056W        W38980  38.731  17.732  52.419
47057W        W38981  47.175   5.269  53.346
47058W        W38982  31.216  28.210  51.533
47059W        W38983  16.271  36.231  51.063
47060W        W38984   9.275  21.218  53.338
47061W        W38985   4.287  42.716  51.960
47062W        W38986  37.203  28.713  50.160
47063W        W38987  20.723  43.186  50.163
47064W        W38988   7.763  17.767  51.062
47065W        W38989   4.275   5.773  53.811
47066W        W38990  41.720   2.763  52.426
47067W        W38991  36.715  26.250  51.515
47068W        W38992  37.198  39.217  50.589
47069W        W38993  38.706  42.196  51.985
47070W        W38994  38.214   5.773  53.345
47071W        W38995  32.212  32.700  51.071
47072W        W38996  15.263  15.250  50.130
47073W        W38997  37.213  27.725  51.949
47074W        W38998   9.235  18.764  53.775
47075W        W38999  44.704  47.688  49.677
47076W        W39000   0.273  37.692  49.697
47077W        W39001  27.223  43.705  53.344
47078W        W39002  18.260  47.713  53.799
47079W        W39003   1.286  27.238  52.898
47080W        W39004  28.732  48.190  49.708
47081W        W39005  28.237  17.256  50.607
47082W        W39006  14.273  32.713  53.356
47083W        W39007  47.217  21.750  51.035
47084W        W39008  27.213  38.727  53.786
47085W        W39009  23.730  13.762  53.773
47086W        W39010  21.216  19.262  51.971
47087W        W39011  24.243   2.260  49.694
47088W        W39012   0.786  20.249  51.519
47089W        W39013   9.767  41.719  51.494
47090W        W39014  37.214  35.731  51.060
47091W        W39015  36.690   3.258  53.781
47092W        W39016  27.718  29.247  51.510
47093W        W39017  21.247  10.247  52.430
47094W        W39018  26.218   5.257  51.072
47095W        W39019  17.223  24.734  53.340
47096W        W39020  22.745  24.714  50.132
47097W        W39021  11.776  26.238  50.607
47098W        W39022  25.216   2.282  51.527
47099W        W39023  33.700  14.743  49.670
47100W        W39024   1.762  21.761  53.802
47101W        W39025  30.201   6.776  49.695
47102W        W39026  32.244   2.292  50.121
47103W        W39027  48.179   0.299  53.802
47104W        W39028  26.748  17.251  53.324
47105W        W39029  33.733  42.197  50.129
47106W        W39030   0.776  41.221  50.155
47107W        W39031  28.714  43.205  49.674
47108W        W39032  47.698  47.175  51.076
47109W        W39033   6.274  30.713  50.130
47110W        W39034   4.277  45.698  51.047
47111W        W39035  38.191  18.235  50.166
47112W        W39036  45.703  32.216  52.427
47113W        W39037   7.771  34.235  52.433
47114W        W39038   4.758  33.711  50.121
47115W        W39039  12.775  36.214  53.317
47116W        W39040  45.722  44.210  51.514
47117W        W39041  19.747  47.689  52.447
47118W        W39042  27.237   3.792  53.794
47119W        W39043   7.761  21.230  52.427
47120W        W39044  33.742   8.754  51.980
47121W        W39045  19.249   1.791  53.794
47122W        W39046  48.184  14.252  51.075
47123W        W39047  42.716   8.777  53.780
47124W        W39048  14.731  41.201  50.139
47125W        W39049  34.201  36.701  52.429
47126W        W39050  38.227  27.232  49.678
47127W        W39051  44.209   0.296  53.357
47128W        W39052  12.238   6.752  51.964
47129W        W39053  33.700  28.225  51.956
47130W        W39054  33.233  22.254  51.510
47131W        W39055  21.749  11.272  51.493
47132W        W39056  23.259  45.191  50.159
47133W        W39057   3.275  21.238  52.876
47134W        W39058  34.729  10.251  51.531
47135W        W39059  30.218  36.231  53.773
47136W        W39060  27.725  35.721  52.411
47137W        W39061  15.764  37.704  50.161
47138W        W39062   2.792  15.728  50.161
47139W        W39063  40.226  32.220  53.338
47140W        W39064  12.767  42.711  52.423
47141W        W39065   6.750  38.729  50.598
47142W        W39066  17.224  17.261  51.949
47143W        W39067  14.241  30.237  49.680
47144W        W39068  28.206  15.724  52.887
47145W        W39069  44.190  18.230  51.531
47146W        W39070  29.220  47.693  50.611
47147W        W39071  11.742  12.753  51.987
47148W        W39072  16.237   2.272  50.609
47149W        W39073  23.744  37.208  51.504
47150W        W39074   7.780  32.207  52.443
47151W        W39075  33.710  24.211  53.808
47152W        W39076  10.764  25.255  52.443
47153W        W39077  23.212  18.243  52.882
47154W        W39078  45.183  18.242  51.971
47155W        W39079   5.284   6.756  51.056
47156W        W39080  35.223  23.717  52.885
47157W        W39081  35.700  35.702  51.959
47158W        W39082  31.746  20.217  50.618
47159W        W39083  34.696  42.720  52.407
47160W        W39084  28.244   2.265  51.496
47161W        W39085  10.767  21.229  50.610
47162W        W39086  27.710  39.198  52.895
47163W        W39087  12.772  25.709  51.529
47164W        W39088   2.291  20.765  49.676
47165W        W39089  31.226  47.209  51.495
47166W        W39090   3.276  15.760  53.775
47167W        W39091  14.772  23.722  49.681
47168W        W39092  34.199  11.240  53.816
47169W        W39093   7.240  30.722  53.336
47170W        W39094  33.218  21.258  53.780
47171W        W39095  12.736  23.712  52.903
47172W        W39096  26.710  25.713  49.705
47173W        W39097  31.699   1.786  51.967
47174W        W39098   4.282  44.208  50.143
47175W        W39099  13.742  13.265  50.587
47176W        W39100  44.218   9.265  51.533
47177W        W39101  29.231  36.202  50.165
47178W        W39102  37.713  24.254  51.524
47179W        W39103  21.223   9.783  53.779
47180W        W39104   4.757  10.782  51.981
47181W        W39105  25.218  17.263  52.445
47182W        W39106  47.222  38.192  50.129
47183W        W39107  16.228  43.685  50.165
47184W        W39108  15.241   4.270  53.808
47185W        W39109   8.784   7.252  53.320
47186W        W39110  34.240   6.787  51.046
47187W        W39111  16.265  14.774  52.442
47188W        W39112  40.209  17.753  49.664
47189W        W39113   6.242  40.713  51.497
47190W        W39114  16.273  46.203  50.606
47191W        W39115  25.242   1.283  53.773
47192W        W39116  48.193  37.201  51.497
47193W        W39117  19.227  10.760  51.976
47194W        W39118  18.761  12.764  51.035
47195W        W39119  19.229  44.217  51.947
47196W        W39120   9.275  30.209  53.807
47197W        W39121  12.778  36.234  53.783
47198W        W39122   0.281  46.715  53.359
47199W        W39123  22.730  26.211  50.146
47200W        W39124  35.223  34.724  52.860
47201W        W39125  13.243  40.727  53.812
47202W        W39126  28.243  36.692  50.152
47203W        W39127   7.778   5.271  53.355
47204W        W39128  42.714  34.200  50.619
47205W        W39129  46.682  25.237  49.684
47206W        W39130  23.747   6.776  53.343
47207W        W39131  44.200   7.251  51.034
47208W        W39132  12.775  40.713  52.443
47209W        W39133  22.235  43.702  51.511
47210W        W39134   9.741  36.199  52.874
47211W        W39135  18.760  20.760  52.404
47212W        W39136  45.218  44.695  50.608
47213W        W39137  25.215  41.682  53.795
47214W        W39138  39.691  11.775  51.527
47215W        W39139  48.186   5.259  52.870
47216W        W39140  34.722  31.719  53.775
47217W        W39141  16.768  25.218  50.601
47218W        W39142  36.704  20.218  50.611
47219W        W39143  17.242  30.738  49.707
47220W        W39144   4.769  40.229  50.135
47221W        W39145  22.719  17.244  51.060
47222W        W39146  19.256  16.265  53.351
47223W        W39147  23.716   1.276  52.873
47224W        W39148  43.710  22.259  53.809
47225W        W39149  34.704  20.236  53.789
47226W        W39150  32.701  25.258  51.973
47227W        W39151  15.227  20.723  50.620
47228W        W39152  26.222  11.762  52.419
47229W        W39153  11.274   6.281  50.154
47230W        W39154  27.748  39.722  53.815
47231W        W39155  15.247  34.229  50.145
47232W        W39156  39.208  18.739  50.605
47233W        W39157  20.744   5.280  50.584
47234W        W39158  34.202  32.226  50.582
47235W        W39159  35.232  34.227  52.889
47236W        W39160  28.208  41.722  51.957
47237W        W39161  13.232  34.204  52.426
47238W        W39162  32.734  22.222  50.163
47239W        W39163  44.202   2.750  49.706
47240W        W39164  27.753  47.197  53.356
47241W        W39165  18.751   8.257  53.351
47242W        W39166  42.691  36.701  50.584
47243W        W39167  34.726   4.291  53.791
47244W        W39168   2.770  27.211  53.801
47245W        W39169   1.269  43.201  51.960
47246W        W39170  22.261  38.207  53.345
47247W        W39171   2.289   3.292  51.534
47248W        W39172   4.265  12.276  49.666
47249W        W39173  44.217  16.255  53.803
47250W        W39174  13.728  24.218  53.791
47251W        W39175  10.736  44.215  51.502
47252W        W39176  25.218  29.214  51.039
47253W        W39177  33.707  15.269  50.139
47254W        W39178  20.729   4.758  52.443
47255W        W39179  16.761  15.772  51.513
47256W        W39180   6.284  14.238  50.594
47257W        W39181   5.268  24.734  50.592
47258W        W39182  22.230  38.726  50.140
47259W        W39183  32.745  44.720  50.123
47260W        W39184  16.725  20.227  50.128
47261W        W39185  27.246  44.711  50.157
47262W        W39186  11.262   0.292  50.612
47263W        W39187  23.224  24.727  50.620
47264W        W39188   7.767   4.787  51.049
47265W        W39189   9.258  35.732  53.342
47266W        W39190  42.697  40.232  51.985
47267W        W39191  45.224  38.236  51.508
47268W        W39192  33.215  24.248  50.149
47269W        W39193  34.240   9.282  52.889
47270W        W39194  43.212  19.259  50.145
47271W        W39195  28.222   7.254  51.986
47272W        W39196  18.247  17.769  51.061
47273W        W39197  19.757   1.770  50.588
47274W        W39198   1.269  21.259  53.777
47275W        W39199  22.243   8.258  51.520
47276W        W39200  11.746  26.724  51.966
47277W        W39201  13.763  21.760  51.959
47278W        W39202  20.754  26.241  52.901
47279W        W39203  28.208  14.270  51.503
47280W        W39204  12.243  14.267  50.606
47281W        W39205  44.717  17.725  50.595
47282W        W39206   5.761  31.742  53.794
47283W        W39207   3.758  13.238  52.404
47284W        W39208  22.263  20.261  50.133
47285W        W39209   2.761  39.732  49.678
47286W        W39210   9.752  34.703  51.077
47287W        W39211  17.267   8.273  50.600
47288W        W39212   5.258  19.268  49.692
47289W        W39213  42.181  30.232  53.346
47290W        W39214   3.274   9.750  50.577
47291W        W39215  16.230  14.729  50.124
47292W        W39216   9.284  22.255  51.951
47293W        W39217  15.737   6.278  51.518
47294W        W39218   6.256   3.246  50.153
47295W        W39219  11.741  40.233  52.874
47296W        W39220  41.207  29.734  53.321
47297W        W39221  14.740  42.210  52.881
47298W        W39222  35.740  26.736  51.516
47299W        W39223  47.703  44.182  51.515
47300W        W39224  31.222  32.708  52.877
47301W        W39225  40.210   5.746  49.698
47302W        W39226   7.257  29.243  49.688
47303W        W39227  12.270   3.261  50.618
47304W        W39228   2.291  43.712  53.325
47305W        W39229  17.256  40.712  52.422
47306W        W39230  22.235  37.201  53.348
47307W        W39231  33.715   5.787  53.798
47308W        W39232  19.227  46.688  51.052
47309W        W39233   6.758  43.699  51.050
47310W        W39234   6.739   4.758  52.887
47311W        W39235  48.177   1.750  53.327
47312W        W39236  47.220  30.744  49.665
47313W        W39237  32.244  42.218  51.074
47314W        W39238   0.774  38.714  51.499
47315W        W39239  16.271  24.745  51.948
47316W        W39240  14.247   0.283  51.533
47317W        W39241  44.191  29.746  53.810
47318W        W39242  35.233  40.695  52.860
47319W        W39243  46.222  34.713  49.681
47320W        W39244  23.256  32.240  51.497
47321W        W39245  16.246  47.209  50.617
47322W        W39246   0.780  45.677  49.683
47323W        W39247  21.741   0.796  52.411
47324W        W39248  36.732   1.264  51.962
47325W        W39249  18.238  24.743  52.872
47326W        W39250  34.226  20.733  53.782
47327W        W39251  34.212  14.235  52.441
47328W        W39252  13.733  31.713  50.595
47329W        W39253  23.723  36.216  50.585
47330W        W39254  36.200  46.188  50.128
47331W        W39255   2.771  25.229  50.128
47332W        W39256   4.273  42.214  50.595
47333W        W39257  18.732  40.213  51.498
47334W        W39258   3.790  31.235  50.159
47335W        W39259  38.729  42.725  51.990
47336W        W39260  43.186  25.240  50.154
47337W        W39261  14.741  16.259  53.773
47338W        W39262  32.742  21.224  53.788
47339W        W39263  46.199  24.747  49.710
47340W        W39264   7.782  39.710  53.333
47341W        W39265   9.773  38.728  51.504
47342W        W39266  34.735  32.741  52.892
47343W        W39267  35.214  27.217  50.618
47344W        W39268  31.205  34.731  51.528
47345W        W39269   0.268  13.229  52.877
47346W        W39270   1.777  20.248  51.495
47347W        W39271  35.220  18.761  53.351
47348W        W39272  12.239  32.700  51.043
47349W        W39273  29.732  35.231  50.165
47350W        W39274  45.199  20.254  53.803
47351W        W39275  31.220  24.245  51.971
47352W        W39276  39.691  34.705  49.670
47353W        W39277  16.753  11.738  52.880
47354W        W39278  17.236  30.246  53.778
47355W        W39279  13.765  40.702  53.347
47356W        W39280  32.729  10.733  52.409
47357W        W39281  28.728   4.277  52.432
47358W        W39282  22.743   3.766  50.596
47359W        W39283  13.229  43.218  51.493
47360W        W39284  44.178  13.747  52.403
47361W        W39285   0.275  35.225  51.973
47362W        W39286   1.793  42.210  51.504
47363W        W39287  10.264  13.270  53.355
47364W        W39288  47.193  13.244  51.522
47365W        W39289  38.730  24.713  51.517
47366W        W39290   8.781  29.227  51.071
47367W        W39291  45.703  34.212  52.861
47368W        W39292  47.191  24.749  51.079
47369W        W39293  21.718  27.210  50.149
47370W        W39294  39.217   4.760  50.577
47371W        W39295  13.277  11.270  50.579
47372W        W39296   6.257  41.210  50.164
47373W        W39297  39.214  26.239  52.867
47374W        W39298  12.253  48.207  49.683
47375W        W39299   6.284  20.717  50.134
47376W        W39300  24.709   7.751  51.034
47377W        W39301  15.744  25.727  50.597
47378W        W39302  40.198  36.703  50.604
47379W        W39303  38.711  38.209  53.338
47380W        W39304   8.774   8.241  49.681
47381W        W39305  15.759   5.247  53.333
47382W        W39306   1.796  42.719  51.067
47383W        W39307   4.278  19.753  53.783
47384W        W39308  20.217   6.763  50.150
47385W        W39309  43.201  21.217  52.417
47386W        W39310  43.725  34.221  50.604
47387W        W39311   4.250  12.242  53.337
47388W        W39312  17.739   9.739  50.144
47389W        W39313  15.762   2.794  53.352
47390W        W39314  33.732  25.744  52.415
47391W        W39315  47.217   5.768  50.603
47392W        W39316  44.187  47.207  53.807
47393W        W39317  44.723  32.716  51.497
47394W        W39318  26.723   3.787  49.672
47395W        W39319  16.743  35.705  52.895
47396W        W39320   7.251   1.757  51.037
47397W        W39321   1.749  21.760  52.895
47398W        W39322   6.266  15.733  51.067
47399W        W39323   3.791  11.266  50.148
47400W        W39324  12.276  24.229  52.902
47401W        W39325  42.212  28.230  50.162
47402W        W39326  41.231  26.751  50.156
47403W        W39327  44.722  12.261  53.331
47404W        W39328  38.701  25.752  49.686
47405W        W39329  26.239  36.716  53.357
47406W        W39330  38.235  26.227  51.063
47407W        W39331  25.718  11.757  51.977
47408W        W39332  20.761   7.244  51.071
47409W        W39333  29.228  40.214  52.408
47410W        W39334  27.716  17.761  51.494
47411W        W39335  43.693   8.743  51.496
47412W        W39336  26.243  39.227  51.988
47413W        W39337  22.728  45.176  49.700
47414W        W39338  40.227  48.199  51.048
47415W        W39339  33.234  11.770  51.982
47416W        W39340  20.754  45.707  51.965
47417W        W39341  18.767  26.219  53.355
47418W        W39342   2.788  38.712  51.960
47419W        W39343  25.250  40.185  49.678
47420W        W39344  18.242   1.264  50.162
47421W        W39345  28.729  13.758  51.078
47422W        W39346  43.708   9.768  49.695
47423W        W39347  20.742   8.745  51.063
47424W        W39348  28.744  29.735  49.680
47425W        W39349  30.247  23.728  52.417
47426W        W39350   4.292  41.703  49.705
47427W        W39351  34.734  14.753  50.585
47428W        W39352  29.206  22.236  52.885
47429W        W39353  38.194  27.739  50.121
47430W        W39354  23.722  20.738  50.614
47431W        W39355  18.762  36.226  51.530
47432W        W39356   7.248  18.231  51.052
47433W        W39357  14.246  32.698  50.581
47434W        W39358  16.247   9.746  49.698
47435W        W39359  11.774  46.199  50.594
47436W        W39360  15.233  20.736  50.163
47437W        W39361  23.728  24.714  52.885
47438W        W39362   2.787  41.715  52.405
47439W        W39363  31.724   2.795  52.876
47440W        W39364  25.216  37.233  50.598
47441W        W39365   1.758   6.246  52.432
47442W        W39366  29.725  37.713  50.608
47443W        W39367   8.743  15.763  51.065
47444W        W39368  28.747   4.243  51.077
47445W        W39369   4.246  27.720  51.044
47446W        W39370   8.747  11.234  51.048
47447W        W39371   9.266  29.730  51.055
47448W        W39372  11.262  33.224  49.665
47449W        W39373  17.763  28.241  49.674
47450W        W39374  21.735  10.277  52.885
47451W        W39375   8.281   7.284  51.495
47452W        W39376  30.236  12.266  51.949
47453W        W39377  28.247  29.239  50.616
47454W        W39378  15.251  45.677  49.672
47455W        W39379  38.219  31.739  49.698
47456W        W39380   2.273  23.213  51.514
47457W        W39381  23.224  44.224  53.347
47458W        W39382   6.788   1.266  53.807
47459W        W39383  20.721  19.220  51.056
47460W        W39384  43.186  48.179  49.692
47461W        W39385  40.209  43.228  51.503
47462W        W39386   7.752  37.694  51.522
47463W        W39387   3.255   6.767  50.593
47464W        W39388  16.230   2.787  51.958
47465W        W39389  25.234   8.268  52.895
47466W        W39390  39.691  12.771  52.873
47467W        W39391  10.240   3.265  50.612
47468W        W39392   8.747  19.266  53.786
47469W        W39393  36.224  35.739  53.333
47470W        W39394  44.698   6.259  53.787
47471W        W39395  43.196  15.230  50.591
47472W        W39396  18.768  38.224  50.619
47473W        W39397   6.753  16.264  53.806
47474W        W39398  11.758  11.761  50.127
47475W        W39399  25.227  44.184  50.595
47476W        W39400   7.768   5.252  51.054
47477W        W39401  23.744  21.256  53.784
47478W        W39402   0.787  33.229  51.948
47479W        W39403  11.237  38.191  52.894
47480W        W39404  41.187  28.236  52.426
47481W        W39405  46.200  22.215  50.597
47482W        W39406  41.202  36.210  50.618
47483W        W39407   0.289  36.702  50.142
47484W        W39408  20.225  23.760  50.141
47485W        W39409  35.208  13.237  50.615
47486W        W39410  46.206  37.705  50.620
47487W        W39411   7.782  32.697  49.668
47488W        W39412  23.261  17.761  49.680
47489W        W39413   1.750  35.701  53.358
47490W        W39414  44.718   3.750  51.986
47491W        W39415  27.743  31.738  53.334
47492W        W39416  16.727  48.218  49.690
47493W        W39417  10.778   0.757  50.129
47494W        W39418   7.251  41.198  50.610
47495W        W39419  20.744   8.240  52.432
47496W        W39420  43.197  12.771  51.981
47497W        W39421   9.757  13.728  51.521
47498W        W39422   6.751  41.716  50.150
47499W        W39423  11.274  15.769  49.697
47500W        W39424  33.708  30.204  49.665
47501W        W39425  44.215  48.188  51.076
47502W        W39426  45.178  10.280  52.429
47503W        W39427  29.246  39.693  52.884
47504W        W39428  39.232  39.228  51.967
47505W        W39429  39.691  32.728  53.342
47506W        W39430  42.696  45.678  53.785
47507W        W39431  29.748  33.211  53.806
47508W        W39432  40.698  16.250  53.786
47509W        W39433  28.744  14.744  52.900
47510W        W39434  30.727  38.201  53.792
47511W        W39435  18.756   7.767  51.043
47512W        W39436  36.216   3.763  51.043
47513W        W39437  48.201  22.253  50.582
47514W        W39438  46.713  11.254  52.888
47515W        W39439  12.240  20.251  51.039
47516W        W39440  10.247  28.715  53.777
47517W        W39441  15.729   1.276  53.787
47518W        W39442  20.236  40.732  51.514
47519W        W39443  30.745  30.238  51.951
47520W        W39444   0.288   9.245  52.445
47521W        W39445   6.752  34.200  51.967
47522W        W39446  12.262  45.208  50.614
47523W        W39447   8.280  12.777  53.815
47524W        W39448   4.292  35.235  50.598
47525W        W39449  41.199  47.719  51.951
47526W        W39450  40.711  24.238  52.903
47527W        W39451  11.754  26.240  53.806
47528W        W39452   8.277  22.236  52.895
47529W        W39453  44.708  43.715  53.329
47530W        W39454  17.736  23.260  52.435
47531W        W39455  10.762  36.718  50.583
47532W        W39456   8.263  39.706  52.871
47533W        W39457  29.235  35.240  53.775
47534W        W39458  45.222  22.723  50.585
47535W        W39459   8.253   2.285  50.122
47536W        W39460  20.763  24.757  51.984
47537W        W39461  15.240   3.280  52.441
47538W        W39462   0.777  26.736  52.881
47539W        W39463   0.785   4.290  50.162
47540W        W39464  46.686  25.721  50.583
47541W        W39465  43.214  11.274  53.795
47542W        W39466  25.243   4.284  50.135
47543W        W39467  41.714  48.196  53.787
47544W        W39468  31.728   6.250  50.598
47545W        W39469  19.747  45.189  52.416
47546W        W39470  17.263  36.701  53.817
47547W        W39471  23.255  18.257  50.121
47548W        W39472  10.256  41.186  53.359
47549W        W39473  32.727  38.190  49.692
47550W        W39474  38.714  24.249  52.444
47551W        W39475   4.284   3.248  52.443
47552W        W39476  28.204   8.276  52.878
47553W        W39477   2.785  45.217  50.128
47554W        W39478  17.264   1.771  49.665
47555W        W39479  47.211  15.771  49.703
47556W        W39480  19.724  38.691  49.708
47557W        W39481  19.765   1.759  50.138
47558W        W39482  30.707  45.714  50.140
47559W        W39483  41.722  37.720  52.863
47560W        W39484   5.767  28.734  53.785
47561W        W39485  38.717   1.770  52.435
47562W        W39486  33.233  11.742  51.063
47563W        W39487  24.738  31.243  53.775
47564W        W39488  16.731   3.288  50.151
47565W        W39489  10.763  47.175  51.507
47566W        W39490  29.726   2.266  50.164
47567W        W39491  44.725  34.718  52.880
47568W        W39492  38.235  22.254  53.800
47569W        W39493  14.766   7.786  49.682
47570W        W39494  31.698  40.712  51.067
47571W        W39495   2.282  22.255  50.144
47572W        W39496  30.229  43.680  53.358
47573W        W39497  37.724  29.726  52.860
47574W        W39498  19.718  12.263  50.166
47575W        W39499  26.710   4.742  49.704
47576W        W39500  40.187  45.676  50.582
47577W        W39501   1.297  44.690  51.507
47578W        W39502   6.282   6.243  50.588
47579W        W39503  27.237   0.758  52.889
47580W        W39504   0.754  12.256  53.349
47581W        W39505  18.267  34.727  51.509
47582W        W39506  18.722  32.233  52.447
47583W        W39507  32.234   4.748  51.039
47584W        W39508  22.735   4.751  52.887
47585W        W39509  16.262   0.759  50.608
47586W        W39510  34.701   2.284  52.448
47587W        W39511  38.704  17.252  51.962
47588W        W39512  26.241   8.271  50.154
47589W        W39513  21.762  16.256  52.413
47590W        W39514   2.278  15.750  50.587
47591W        W39515   7.754  42.721  53.776
47592W        W39516  20.229   6.257  52.889
47593W        W39517   4.766  32.735  51.052
47594W        W39518  16.262   9.774  51.497
47595W        W39519  22.253  11.247  53.327
47596W        W39520   1.790   6.782  51.058
47597W        W39521  23.260  47.175  51.511
47598W        W39522  32.721  11.750  52.868
47599W        W39523   9.277  13.276  50.612
47600W        W39524  10.256   1.286  53.808
47601W        W39525   0.771  30.214  50.134
47602W        W39526  42.712  39.220  53.809
47603W        W39527   5.248  44.696  53.317
47604W        W39528  13.760  30.724  51.988
47605W        W39529  29.745  20.731  53.772
47606W        W39530  31.207   9.752  50.147
47607W        W39531   3.250  21.723  51.079
47608W        W39532  23.737   9.749  51.516
47609W        W39533  14.247  25.252  49.669
47610W        W39534  45.718  10.751  52.440
47611W        W39535  25.250  29.235  50.617
47612W        W39536  28.744  15.248  50.146
47613W        W39537  42.197  16.241  50.587
47614W        W39538  32.737  27.212  50.587
47615W        W39539   7.252  44.177  51.045
47616W        W39540  25.729  28.247  51.058
47617W        W39541  10.242  12.748  53.817
47618W        W39542   8.262  17.242  50.159
47619W        W39543   8.763  10.237  53.334
47620W        W39544  35.725  14.764  53.817
47621W        W39545  35.729  33.220  51.952
47622W        W39546   8.783  48.183  51.534
47623W        W39547  20.751   9.239  51.035
47624W        W39548  24.219  20.725  49.664
47625W        W39549  30.228  48.178  51.952
47626W        W39550   6.259  44.715  50.123
47627W        W39551   0.785  10.239  50.122
47628W        W39552  21.714  47.721  52.885
47629W        W39553  35.198  20.225  49.693
47630W        W39554  28.709  45.218  50.604
47631W        W39555  21.732  26.212  51.039
47632W        W39556  11.270   2.755  53.340
47633W        W39557  47.698  12.754  52.864
47634W        W39558   2.247  27.238  52.889
47635W        W39559  24.731  40.197  50.582
47636W        W39560  29.242  30.707  51.512
47637W        W39561  30.227  27.234  49.679
47638W        W39562   6.259   5.778  50.600
47639W        W39563  30.225   6.258  51.954
47640W        W39564  22.736  45.195  51.990
47641W        W39565  45.694  41.707  52.872
47642W        W39566  28.247  22.221  52.899
47643W        W39567  33.705  46.712  52.866
47644W        W39568  34.741  28.737  51.056
47645W        W39569  40.701  35.716  49.688
47646W        W39570  33.716  30.209  51.070
47647W        W39571  45.718  18.265  50.162
47648W        W39572   9.267  16.239  52.447
47649W        W39573  23.756  28.742  52.405
47650W        W39574   4.755  45.216  53.358
47651W        W39575  41.221  48.209  51.525
47652W        W39576  19.736  38.718  52.428
47653W        W39577  10.243  39.220  52.880
47654W        W39578  23.756   1.780  51.495
47655W        W39579  16.228  28.208  50.141
47656W        W39580  16.272  38.197  52.883
47657W        W39581  42.714  18.222  51.062
47658W        W39582  47.717  22.723  52.874
47659W        W39583   2.751   7.750  49.689
47660W        W39584  40.731  35.207  49.665
47661W        W39585  41.706  46.702  52.898
47662W        W39586  17.753  47.697  51.512
47663W        W39587   7.266  47.203  50.161
47664W        W39588  45.686  40.686  53.343
47665W        W39589  25.211  31.728  50.621
47666W        W39590  41.726   8.281  53.784
47667W        W39591   1.271  39.708  52.413
47668W        W39592   1.759  14.728  53.806
47669W        W39593  26.246  43.224  52.874
47670W        W39594  10.241  13.253  51.965
47671W        W39595  35.237  25.722  50.159
47672W        W39596  35.235  45.194  50.611
47673W        W39597  32.198  18.742  51.972
47674W        W39598  31.201  17.249  50.577
47675W        W39599  44.196   8.258  52.448
47676W        W39600  34.236   5.280  50.598
47677W        W39601  44.203  25.232  53.341
47678W        W39602  29.202  14.726  50.145
47679W        W39603   8.246   0.772  53.338
47680W        W39604  38.189  47.203  52.893
47681W        W39605  35.226   2.294  51.955
47682W        W39606  20.725  35.711  53.345
47683W        W39607  46.713  24.259  53.334
47684W        W39608  21.755  36.703  52.885
47685W        W39609  32.200   1.764  50.125
47686W        W39610  14.752  27.750  52.878
47687W        W39611  47.176  11.267  52.436
47688W        W39612   3.246  12.250  52.406
47689W        W39613  34.195   6.277  53.809
47690W        W39614  34.731  26.749  50.611
47691W        W39615  30.224  30.725  53.781
47692W        W39616   3.746  26.711  52.879
47693W        W39617  32.710  25.721  51.514
47694W        W39618  18.726  39.232  53.783
47695W        W39619  30.704  41.209  53.798
47696W        W39620   9.236   3.252  53.809
47697W        W39621  21.226  18.258  50.603
47698W        W39622   5.753  21.723  52.427
47699W        W39623  46.686  48.193  51.977
47700W        W39624  36.194  30.229  52.904
47701W        W39625   3.776  37.708  51.980
47702W        W39626   8.271  27.214  51.052
47703W        W39627   6.274  10.746  52.879
47704W        W39628  28.227  15.267  50.608
47705W        W39629  34.740  23.216  53.794
47706W        W39630  28.250  26.239  51.498
47707W        W39631  39.690  10.254  52.889
47708W        W39632  16.733  26.242  50.146
47709W        W39633  42.190  30.247  50.157
47710W        W39634  35.203  12.764  52.896
47711W        W39635   6.786  37.228  53.339
47712W        W39636  18.741  32.205  51.964
47713W        W39637  39.233   9.741  49.689
47714W        W39638   3.264  14.263  49.666
47715W        W39639  21.227  39.226  51.515
47716W        W39640  21.760  24.759  51.961
47717W        W39641   1.768  46.684  53.360
47718W        W39642  37.697  11.236  51.050
47719W        W39643   5.771   8.784  52.424
47720W        W39644  34.238   3.767  50.579
47721W        W39645  34.238  27.208  51.042
47722W        W39646  16.723  37.715  52.863
47723W        W39647  34.207  37.213  52.872
47724W        W39648  43.702  42.704  49.702
47725W        W39649   1.786  16.747  50.614
47726W        W39650  30.246   1.750  50.159
47727W        W39651  33.730   6.768  50.618
47728W        W39652  46.710  39.717  52.408
47729W        W39653  25.242  34.732  52.419
47730W        W39654  27.731  36.190  52.415
47731W        W39655   0.267  39.716  51.971
47732W        W39656  31.239   2.763  50.590
47733W        W39657   2.270   2.287  52.904
47734W        W39658  33.729  45.221  50.588
47735W        W39659   2.747  38.231  50.164
47736W        W39660  16.265  10.246  53.814
47737W        W39661   0.274  18.767  53.327
47738W        W39662   8.737  26.720  51.064
47739W        W39663  18.224  16.733  51.989
47740W        W39664  13.773  18.749  49.692
47741W        W39665   1.295  18.744  52.902
47742W        W39666  27.251  37.228  51.501
47743W        W39667  28.222  47.684  49.682
47744W        W39668  40.687   2.779  52.446
47745W        W39669   4.786  34.229  50.163
47746W        W39670  25.231   0.296  49.703
47747W        W39671   5.780   3.260  51.985
47748W        W39672  39.186  17.753  51.061
47749W        W39673  19.727  37.233  51.991
47750W        W39674  21.262  36.736  50.155
47751W        W39675  40.212  45.220  51.949
47752W        W39676   5.765  21.747  51.517
47753W        W39677  19.754  14.233  50.621
47754W        W39678   0.251  29.745  52.442
47755W        W39679  26.718  13.775  52.893
47756W        W39680  29.236  24.748  50.144
47757W        W39681   4.262  36.707  51.981
47758W        W39682  14.755  39.216  51.508
47759W        W39683  34.222  12.270  51.494
47760W        W39684  45.705  19.745  51.041
47761W        W39685  15.756   2.258  49.666
47762W        W39686  10.734  32.731  53.336
47763W        W39687   1.764  23.243  51.989
47764W        W39688  47.689  21.738  53.323
47765W        W39689   3.790  35.232  53.324
47766W        W39690  14.771  31.701  52.867
47767W        W39691  20.721  42.708  51.503
47768W        W39692   1.263  17.729  52.417
47769W        W39693  43.678  47.175  51.954
47770W        W39694  31.205  33.223  52.880
47771W        W39695   1.285  27.745  53.809
47772W        W39696  13.272  23.219  51.052
47773W        W39697  22.734  10.746  51.502
47774W        W39698  11.767  47.718  52.408
47775W        W39699   7.261   7.283  51.046
47776W        W39700   2.783  37.720  52.429
47777W        W39701  18.760   5.774  51.046
47778W        W39702  41.213  14.734  53.353
47779W        W39703   0.798  40.712  53.802
47780W        W39704   7.286  31.742  49.699
47781W        W39705  15.774   0.256  52.902
47782W        W39706  22.261   8.766  53.341
47783W        W39707  46.214  35.209  53.349
47784W        W39708  23.745  44.682  51.494
47785W        W39709   2.754  40.705  50.158
47786W        W39710   7.784  14.768  51.512
47787W        W39711  26.243  13.251  52.873
47788W        W39712   3.251   3.783  51.072
47789W        W39713  10.744  46.674  51.981
47790W        W39714  35.208  44.720  53.815
47791W        W39715  24.243  39.209  51.515
47792W        W39716  18.261  33.696  50.146
47793W        W39717   7.785  16.768  52.882
47794W        W39718   5.284  27.210  49.688
47795W        W39719   2.290   0.282  51.498
47796W        W39720   4.251  16.241  51.960
47797W        W39721  29.704  32.230  51.060
47798W        W39722  24.229  30.208  49.703
47799W        W39723  31.728  13.755  51.950
47800W        W39724  36.207  11.265  49.697
47801W        W39725   0.293  34.219  52.418
47802W        W39726  33.245  25.223  51.044
47803W        W39727  25.744  12.764  52.864
47804W        W39728  19.230  32.216  49.672
47805W        W39729  31.702  23.245  52.884
47806W        W39730  10.239   5.277  51.501
47807W        W39731  46.198  15.265  51.038
47808W        W39732   5.266   5.289  53.774
47809W        W39733  47.214  31.227  52.409
47810W        W39734  27.250  29.209  51.990
47811W        W39735   3.256  36.700  53.778
47812W        W39736  34.735   3.754  49.672
47813W        W39737  17.264   3.273  52.409
47814W        W39738  36.240  12.770  53.775
47815W        W39739  24.247  17.740  50.136
47816W        W39740  11.773  43.202  51.981
47817W        W39741  45.180   4.773  53.791
47818W        W39742  21.243   4.255  50.143
47819W        W39743  11.233  26.744  53.339
47820W        W39744  37.217  20.722  53.337
47821W        W39745  21.732   2.759  50.587
47822W        W39746  36.230  25.242  51.495
47823W        W39747  27.718  42.709  52.898
47824W        W39748  40.706  40.233  52.865
47825W        W39749  10.239  21.722  53.806
47826W        W39750   1.275  38.724  53.325
47827W        W39751  44.678   6.285  50.141
47828W        W39752  36.223  20.252  51.952
47829W        W39753  31.702  32.725  52.416
47830W        W39754  21.732   9.746  49.697
47831W        W39755  18.758  22.238  53.318
47832W        W39756  16.724  23.259  51.057
47833W        W39757   4.776  41.200  52.417
47834W        W39758  47.220   0.286  51.046
47835W        W39759   8.742  37.202  51.953
47836W        W39760  45.217   6.779  50.147
47837W        W39761  22.243  43.187  50.162
47838W        W39762  13.267  11.745  50.614
47839W        W39763  29.247  34.243  50.165
47840W        W39764  25.719  38.733  51.519
47841W        W39765  29.709  45.712  52.891
47842W        W39766   4.258  18.247  51.076
47843W        W39767  15.273  28.214  50.589
47844W        W39768  20.219   4.274  52.406
47845W        W39769  33.207  23.232  52.441
47846W        W39770   0.256  18.734  50.129
47847W        W39771   8.767   6.755  53.342
47848W        W39772  22.721  14.765  51.077
47849W        W39773  32.717  13.775  52.418
47850W        W39774  13.736  16.759  52.863
47851W        W39775  32.713  34.240  50.611
47852W        W39776  33.231  17.746  51.981
47853W        W39777  40.230  27.233  53.349
47854W        W39778  46.689  43.227  49.667
47855W        W39779  35.227  31.201  52.440
47856W        W39780  23.223  28.233  52.864
47857W        W39781  45.213   3.765  52.861
47858W        W39782  22.259  16.239  50.622
47859W        W39783   7.766   3.755  51.061
47860W        W39784  39.187  22.238  51.494
47861W        W39785   7.240  35.697  51.990
47862W        W39786  38.710  24.242  51.063
47863W        W39787  16.223   7.284  51.039
47864W        W39788  19.741  23.729  51.521
47865W        W39789   6.744  43.225  52.900
47866W        W39790  35.734  15.252  52.883
47867W        W39791  44.699   4.743  50.136
47868W        W39792  18.254  12.232  52.404
47869W        W39793  23.759   1.264  53.339
47870W        W39794  12.732  28.749  52.863
47871W        W39795  29.750  35.227  52.439
47872W        W39796   4.789  27.737  52.410
47873W        W39797  28.741  31.724  50.124
47874W        W39798  36.211   6.263  51.504
47875W        W39799  42.190  17.770  52.436
47876W        W39800  39.213  24.240  51.042
47877W        W39801   2.248  21.716  53.336
47878W        W39802  29.232  33.705  53.816
47879W        W39803  17.757   2.271  51.981
47880W        W39804  15.258  45.178  52.869
47881W        W39805  27.237  35.730  53.316
47882W        W39806  13.244  35.702  49.693
47883W        W39807  24.211   7.267  52.902
47884W        W39808  13.264  44.180  52.885
47885W        W39809   1.770   3.751  50.165
47886W        W39810  47.204   4.790  53.775
47887W        W39811   7.745  32.722  51.966
47888W        W39812  28.731  17.265  50.151
47889W        W39813   3.274  23.728  49.676
47890W        W39814   6.756  38.188  53.813
47891W        W39815  40.197  32.198  52.441
47892W        W39816  22.747   5.749  51.041
47893W        W39817  19.234  46.712  50.165
47894W        W39818  12.765   5.269  53.344
47895W        W39819  24.247  40.211  51.505
47896W        W39820  30.711  41.724  50.606
47897W        W39821   3.790  14.759  52.888
47898W        W39822  21.727  20.717  53.338
47899W        W39823  38.707  37.718  51.518
47900W        W39824  13.273  27.211  53.813
47901W        W39825   6.766  43.198  50.591
47902W        W39826   7.257  19.255  53.808
47903W        W39827  23.250  40.231  52.864
47904W        W39828  23.720   6.285  52.885
47905W        W39829  47.688  42.726  52.865
47906W        W39830  20.759  15.235  50.123
47907W        W39831  17.236  23.722  51.959
47908W        W39832  19.750  16.764  53.775
47909W        W39833  39.191  32.741  52.438
47910W        W39834  44.686  39.687  52.871
47911W        W39835  48.173  44.210  53.347
47912W        W39836   3.746  22.250  52.870
47913W        W39837  41.704  37.201  51.494
47914W        W39838  30.723  29.202  51.064
47915W        W39839   8.738  20.737  51.988
47916W        W39840  11.780  12.756  51.052
47917W        W39841  11.266  48.188  51.522
47918W        W39842  46.708  46.188  52.875
47919W        W39843  44.681   5.763  50.152
47920W        W39844  44.701  38.732  51.501
47921W        W39845  36.729  34.700  52.889
47922W        W39846  34.713   5.269  52.862
47923W        W39847  13.749  29.750  53.348
47924W        W39848  28.747  38.235  51.954
47925W        W39849  37.725  19.229  52.429
47926W        W39850   4.760   4.792  49.685
47927W        W39851  44.677  31.712  52.407
47928W        W39852  46.720  20.738  53.337
47929W        W39853  43.723  42.711  51.044
47930W        W39854  23.761  17.261  52.445
47931W        W39855  44.187  31.727  52.877
47932W        W39856  43.703  41.704  53.352
47933W        W39857  44.197  42.195  50.154
47934W        W39858  21.257  23.231  51.509
47935W        W39859  41.209  18.734  52.876
47936W        W39860  16.227  25.242  51.045
47937W        W39861  28.749  13.261  49.667
47938W        W39862  35.216  20.733  50.608
47939W        W39863  32.741   6.262  50.616
47940W        W39864   2.792  44.693  53.773
47941W        W39865  15.273  21.237  50.614
47942W        W39866  15.751  27.217  51.520
47943W        W39867  42.702   8.759  51.952
47944W        W39868  10.241   9.741  50.162
47945W        W39869  22.757   6.268  53.346
47946W        W39870   9.252  44.717  52.903
47947W        W39871  33.241  42.718  50.130
47948W        W39872   3.766  11.271  52.860
47949W        W39873  31.698  25.724  53.773
47950W        W39874  10.755  18.764  51.952
47951W        W39875  15.743  45.223  51.956
47952W        W39876   2.790  14.775  53.346
47953W        W39877  23.746  33.700  49.671
47954W        W39878   7.769  29.715  53.340
47955W        W39879  13.755  42.680  50.593
47956W        W39880  24.720  15.767  51.066
47957W        W39881  47.174  13.245  50.154
47958W        W39882  39.708   9.777  49.688
47959W        W39883   8.280  19.267  50.614
47960W        W39884  46.212   5.274  53.333
47961W        W39885  25.744  39.717  52.876
47962W        W39886  38.697  45.186  51.986
47963W        W39887  16.230  32.720  51.060
47964W        W39888   8.284  11.746  52.892
47965W        W39889  30.213  34.728  50.142
47966W        W39890  14.247  32.238  52.439
47967W        W39891   7.748   5.741  53.795
47968W        W39892  10.757  10.248  51.976
47969W        W39893  22.228  20.760  51.049
47970W        W39894   9.265  17.262  49.696
47971W        W39895   8.781  22.746  53.349
47972W        W39896  30.709   3.248  50.127
47973W        W39897  31.715  31.723  49.677
47974W        W39898  48.179  32.210  51.528
47975W        W39899  21.721  31.216  49.697
47976W        W39900  10.236   5.765  49.700
47977W        W39901  43.701   3.246  51.977
47978W        W39902  10.754  45.221  53.806
47979W        W39903  35.219  30.215  51.042
47980W        W39904   9.767  14.775  53.802
47981W        W39905  20.725  43.180  49.708
47982W        W39906  23.752  44.722  51.057
47983W        W39907  44.226  29.709  51.519
47984W        W39908  39.233  23.737  53.779
47985W        W39909   2.767  42.729  49.694
47986W        W39910  36.727  15.745  49.679
47987W        W39911  44.183  28.717  52.436
47988W        W39912   7.262   2.760  49.666
47989W        W39913   9.749  25.251  52.895
47990W        W39914  48.184  33.218  52.898
47991W        W39915  12.237  42.705  52.410
47992W        W39916  32.246  45.189  53.813
47993W        W39917  46.205   6.770  51.497
47994W        W39918  21.227  26.723  52.444
47995W        W39919  15.231  23.222  51.050
47996W        W39920   0.763  14.765  49.682
47997W        W39921  44.696  42.729  51.057
47998W        W39922  35.734  35.238  49.708
47999W        W39923   8.754  23.724  51.041
48000W        W39924  27.719  33.217  51.041
48001W        W39925  46.199  43.215  50.125
48002W        W39926  22.718  40.187  52.876
48003W        W39927  14.264  27.716  51.968
48004W        W39928  45.218   2.282  53.813
48005W        W39929   0.297  28.718  53.774
48006W        W39930  15.736  17.761  53.359
48007W        W39931  26.728  33.198  53.807
48008W        W39932  33.208   0.284  52.410
48009W        W39933  26.752  47.175  50.583
48010W        W39934  39.726  31.234  51.947
48011W        W39935  34.233  44.712  52.859
48012W        W39936   0.279  33.739  49.692
48013W        W39937  16.733  25.739  50.160
48014W        W39938  13.728  43.183  49.691
48015W        W39939  23.235   7.763  51.040
48016W        W39940  22.215  36.212  51.065
48017W        W39941  17.242  21.261  53.355
48018W        W39942  29.715  26.747  53.341
48019W        W39943  27.239  35.739  51.073
48020W        W39944   6.281   6.246  51.059
48021W        W39945  42.193  20.755  49.694
48022W        W39946  40.731  10.280  51.078
48023W        W39947  46.188  39.209  53.317
48024W        W39948  26.217  42.703  52.897
48025W        W39949   4.767  42.189  51.530
48026W        W39950  43.200   5.781  50.620
48027W        W39951  44.182  32.738  51.053
48028W        W39952  22.251  46.214  52.877
48029W        W39953  17.237  47.704  52.442
48030W        W39954  16.240  45.683  52.868
48031W        W39955  16.771  31.235  52.897
48032W        W39956  35.213  11.259  53.812
48033W        W39957  29.242  39.200  51.046
48034W        W39958  45.209  32.221  52.867
48035W        W39959  44.682  17.753  52.875
48036W        W39960  28.747  15.756  51.524
48037W        W39961  40.192  23.753  50.619
48038W        W39962  27.206  46.215  52.904
48039W        W39963  41.695   0.767  52.869
48040W        W39964   1.266  39.725  52.866
48041W        W39965  32.727  45.719  51.987
48042W        W39966   7.262  28.227  53.789
48043W        W39967   1.290   3.257  51.046
48044W        W39968   4.749  20.759  51.043
48045W        W39969  34.742   7.279  50.620
48046W        W39970  13.736  37.227  52.429
48047W        W39971   6.757  20.754  52.412
48048W        W39972  38.711  14.267  52.427
48049W        W39973  11.238  43.190  51.035
48050W        W39974  41.710  20.728  50.617
48051W        W39975  40.714  30.716  53.332
48052W        W39976  26.744  45.205  51.066
48053W        W39977  33.711  10.241  53.816
48054W        W39978  15.738  35.701  50.149
48055W        W39979  31.225   8.246  51.968
48056W        W39980  38.725   7.276  51.974
48057W        W39981  22.246  22.247  53.318
48058W        W39982  14.773  18.734  53.336
48059W        W39983  46.188  27.227  53.797
48060W        W39984   4.789  41.689  51.973
48061W        W39985  39.715  30.715  53.805
48062W        W39986  24.715  41.216  53.342
48063W        W39987  24.715  24.745  51.052
48064W        W39988  39.199   3.248  51.068
48065W        W39989   9.251  35.700  53.793
48066W        W39990   2.269  20.719  52.416
48067W        W39991   1.253   0.783  50.121
48068W        W39992   8.267  43.210  52.875
48069W        W39993  15.761   4.273  50.584
48070W        W39994   8.738   0.272  49.681
48071W        W39995  29.247  16.751  51.058
48072W        W39996   3.247   1.783  50.584
48073W        W39997  42.705  10.747  50.602
48074W        W39998  41.211  35.705  52.871
48075W        W39999   3.784   2.252  50.143
48076W        W40000  28.207  24.722  52.888
48077W        W40001  39.723  11.244  51.528
48078W        W40002  43.222  31.746  52.407
48079W        W40003  34.218  12.760  50.131
48080W        W40004  31.214  22.228  49.672
48081W        W40005  11.234  45.197  52.867
48082W        W40006  33.212   3.284  53.359
48083W        W40007  34.695  41.721  53.775
48084W        W40008  12.269  37.690  50.607
48085W        W40009  45.722   4.278  49.678
48086W        W40010  13.250  45.706  52.882
48087W        W40011  20.248  13.262  51.988
48088W        W40012  46.696  18.240  51.052
48089W        W40013  16.726   4.777  51.958
48090W        W40014   4.259  22.223  50.590
48091W        W40015  39.206  23.231  51.974
48092W        W40016   7.259  14.249  51.531
48093W        W40017  24.755  45.217  52.886
48094W        W40018  40.222  32.200  50.163
48095W        W40019  20.732  32.232  49.702
48096W        W40020  44.223  44.723  50.151
48097W        W40021  36.726  41.215  50.618
48098W        W40022  15.270   9.779  53.784
48099W        W40023  47.198  32.213  51.988
48100W        W40024  32.245   7.776  53.772
48101W        W40025  28.732  35.228  52.890
48102W        W40026   9.267   1.768  51.072
48103W        W40027  34.707  20.223  51.490
48104W        W40028  28.736  10.274  52.410
48105W        W40029  44.192   4.286  51.079
48106W        W40030  26.237  47.675  51.496
48107W        W40031  47.196  45.184  51.523
48108W        W40032   1.256  11.276  51.959
48109W        W40033   3.266  32.204  53.322
48110W        W40034   0.259   8.251  53.334
48111W        W40035  21.226  12.770  51.519
48112W        W40036  10.260  39.225  51.948
48113W        W40037   8.755   8.736  50.588
48114W        W40038  14.727  30.749  50.582
48115W        W40039  17.767   6.774  53.783
48116W        W40040  33.242  14.264  49.689
48117W        W40041   1.791  12.257  52.443
48118W        W40042  13.734  37.699  50.165
48119W        W40043  46.201   6.766  52.875
48120W        W40044  28.237   4.290  49.695
48121W        W40045  46.195   1.766  49.709
48122W        W40046  12.269  40.200  49.668
48123W        W40047  45.182  15.750  52.892
48124W        W40048  41.727   0.298  49.706
48125W        W40049  29.239  34.213  52.442
48126W        W40050  46.180  20.261  51.956
48127W        W40051  40.198  32.236  51.041
48128W        W40052  24.256  23.237  49.705
48129W        W40053  22.736  17.241  52.413
48130W        W40054  26.223  18.264  51.505
48131W        W40055   1.289  26.720  52.430
48132W        W40056  44.201   0.752  53.317
48133W        W40057  31.720  25.224  52.446
48134W        W40058  15.727  12.230  52.440
48135W        W40059  13.245  39.213  50.142
48136W        W40060  36.199  14.273  50.578
48137W        W40061  44.723  45.715  53.811
48138W        W40062   6.243  43.689  51.513
48139W        W40063  26.255  24.751  53.343
48140W        W40064  23.240  30.749  50.612
48141W        W40065  33.241  28.216  50.126
48142W        W40066   1.785  26.744  52.420
48143W        W40067  24.224   0.254  50.149
48144W        W40068  32.200  19.737  50.602
48145W        W40069  15.267   8.770  52.413
48146W        W40070   4.274  28.214  53.320
48147W        W40071  39.221  28.729  51.529
48148W        W40072  35.734   9.758  49.673
48149W        W40073  26.227  43.224  53.337
48150W        W40074  14.237   9.242  50.606
48151W        W40075  29.740  37.200  50.618
48152W        W40076   8.275  33.739  51.980
48153W        W40077  36.197  12.235  51.055
48154W        W40078  10.760  35.729  51.076
48155W        W40079  24.229  25.229  52.874
48156W        W40080   4.768  21.762  53.322
48157W        W40081  12.257   9.255  52.863
48158W        W40082  16.765  10.740  51.972
48159W        W40083   4.291   9.778  51.535
48160W        W40084  44.684  47.213  51.959
48161W        W40085  36.213  48.214  51.055
48162W        W40086  40.233  11.748  53.803
48163W        W40087   3.791  30.742  51.034
48164W        W40088  14.256  29.246  51.045
48165W        W40089   0.792  24.712  52.437
48166W        W40090  40.702  47.687  50.160
48167W        W40091   5.256  45.704  52.902
48168W        W40092  44.724  34.218  49.690
48169W        W40093  27.207  44.680  53.785
48170W        W40094   0.777  33.722  53.814
48171W        W40095  29.228   8.782  51.972
48172W        W40096   9.781  22.232  50.617
48173W        W40097  35.701  46.682  50.140
48174W        W40098  33.210  38.209  52.412
48175W        W40099  37.688  34.702  50.159
48176W        W40100  25.250  33.724  51.532
48177W        W40101  27.716  46.175  52.888
48178W        W40102  17.239  23.748  49.665
48179W        W40103   1.263  47.184  51.981
48180W        W40104  35.695   6.269  53.330
48181W        W40105   3.762  16.253  49.696
48182W        W40106   0.260   8.746  50.602
48183W        W40107  48.201  40.705  50.153
48184W        W40108  27.738   0.285  52.901
48185W        W40109  18.229  43.683  50.585
48186W        W40110  37.736  16.758  50.149
48187W        W40111   4.766  11.766  50.129
48188W        W40112  11.753   8.273  50.599
48189W        W40113  42.183  12.249  51.964
48190W        W40114  24.741   7.287  51.976
48191W        W40115  35.206   3.276  53.346
48192W        W40116  32.227  28.243  53.792
48193W        W40117  12.763  35.208  51.054
48194W        W40118  47.177  15.771  53.329
48195W        W40119   8.769   2.792  49.682
48196W        W40120  33.214  28.746  49.700
48197W        W40121  31.706  45.723  50.584
48198W        W40122  40.729  22.734  49.683
48199W        W40123  36.213  40.687  51.972
48200W        W40124  15.265  15.245  52.900
48201W        W40125   7.767  10.274  52.878
48202W        W40126   4.246  41.711  51.036
48203W        W40127   5.281  32.722  53.811
48204W        W40128   9.773  45.696  49.671
48205W        W40129  39.206  34.196  52.868
48206W        W40130  42.710  25.724  51.071
48207W        W40131  37.220  22.759  52.898
48208W        W40132  24.240  47.711  51.953
48209W        W40133  27.740  22.252  53.813
48210W        W40134   3.753  31.203  51.070
48211W        W40135   5.257  25.727  52.867
48212W        W40136  18.729   0.757  49.674
48213W        W40137   5.263  34.234  50.164
48214W        W40138  16.757  41.221  52.433
48215W        W40139  29.701  12.275  51.947
48216W        W40140  12.256  34.228  51.983
48217W        W40141  41.697   0.773  50.164
48218W        W40142   5.280  26.227  52.443
48219W        W40143   6.785  37.690  53.798
48220W        W40144  21.742  41.202  53.775
48221W        W40145  46.209  24.730  53.352
48222W        W40146  27.749   3.749  53.785
48223W        W40147  11.240  34.735  51.036
48224W        W40148  29.218  13.246  52.869
48225W        W40149   6.778  45.215  49.702
48226W        W40150  48.177  35.728  51.529
48227W        W40151  19.720  43.687  52.422
48228W        W40152  30.239  31.742  53.361
48229W        W40153   8.777  36.198  50.153
48230W        W40154  15.238   0.252  53.781
48231W        W40155  15.250   3.280  52.859
48232W        W40156  26.234  45.185  51.501
48233W        W40157  42.226  11.750  50.144
48234W        W40158  33.716  29.235  52.878
48235W        W40159  47.690   6.779  53.788
48236W        W40160   3.249  26.221  51.520
48237W        W40161  45.681  42.690  52.427
48238W        W40162  12.777  17.241  50.592
48239W        W40163  11.244   2.288  53.803
48240W        W40164  34.218  33.204  52.897
48241W        W40165   0.286  24.719  53.317
48242W        W40166  13.742  46.192  50.577
48243W        W40167  47.201  45.678  51.986
48244W        W40168  46.681  22.228  51.058
48245W        W40169  10.253  25.233  51.516
48246W        W40170   9.236  25.258  52.414
48247W        W40171  13.234  10.243  53.352
48248W        W40172  38.223   7.252  51.977
48249W        W40173   8.758  11.278  52.434
48250W        W40174  45.698   2.773  53.817
48251W        W40175  46.201   2.275  53.332
48252W        W40176  46.687  21.229  52.415
48253W        W40177  15.226  24.230  50.123
48254W        W40178  41.721  44.191  51.063
48255W        W40179  13.730   6.774  53.814
48256W        W40180  27.230  19.720  51.961
48257W        W40181  43.691  23.261  51.075
48258W        W40182   9.273  41.208  51.981
48259W        W40183  42.181  34.734  50.607
48260W        W40184  48.220  21.247  51.509
48261W        W40185  41.694  47.709  50.131
48262W        W40186  21.757  28.711  51.062
48263W        W40187  29.207  45.200  53.326
48264W        W40188  39.719  12.272  50.578
48265W        W40189  29.242   6.258  51.529
48266W        W40190   7.242   7.739  52.898
48267W        W40191   9.283  34.240  50.157
48268W        W40192  32.239  38.704  52.865
48269W        W40193  18.741   0.773  50.151
48270W        W40194   6.769  22.248  50.153
48271W        W40195  30.740  48.195  51.983
48272W        W40196  14.251  23.739  51.066
48273W        W40197  17.724   6.766  52.866
48274W        W40198  24.729  27.232  52.428
48275W        W40199   8.754   9.272  53.333
48276W        W40200  28.739  32.713  51.533
48277W        W40201  35.713   3.282  51.074
48278W        W40202  32.225   6.283  53.341
48279W        W40203   1.285  10.781  53.330
48280W        W40204  17.230  34.205  53.807
48281W        W40205  36.237  24.230  53.348
48282W        W40206  30.703  14.251  51.061
48283W        W40207   4.274  44.720  51.068
48284W        W40208  28.737  11.734  52.872
48285W        W40209  37.212  22.752  51.534
48286W        W40210  23.223  15.771  49.671
48287W        W40211  35.712  40.721  51.960
48288W        W40212  39.729  25.734  52.882
48289W        W40213  42.220  18.751  53.795
48290W        W40214  47.209   6.778  51.947
48291W        W40215  37.720  31.726  52.884
48292W        W40216  12.273  34.721  50.601
48293W        W40217  15.760  31.701  50.140
48294W        W40218  25.714  27.247  53.347
48295W        W40219  29.735   2.277  52.879
48296W        W40220  32.207  37.709  51.501
48297W        W40221  33.203  35.227  53.814
48298W        W40222  32.216  47.706  51.982
48299W        W40223  19.241   5.261  52.862
48300W        W40224   5.772   7.781  50.128
48301W        W40225  31.217  42.722  53.774
48302W        W40226   4.289  15.769  49.707
48303W        W40227  45.693  12.738  53.784
48304W        W40228  37.220  11.280  52.861
48305W        W40229  13.243  12.739  51.038
48306W        W40230  11.244  17.229  52.418
48307W        W40231  44.211   1.781  53.792
48308W        W40232   0.268  41.730  52.431
48309W        W40233   7.282  25.757  52.413
48310W        W40234  35.718  10.747  53.361
48311W        W40235  33.242  38.208  53.324
48312W        W40236  27.206  11.758  51.959
48313W        W40237  28.709  27.712  53.317
48314W        W40238  36.732  39.719  50.124
48315W        W40239  33.207  31.742  53.351
48316W        W40240  37.217   5.272  53.325
48317W        W40241  43.193  30.706  50.612
48318W        W40242  29.243  41.219  53.794
48319W        W40243  32.739  24.727  49.698
48320W        W40244  21.253  34.726  53.808
48321W        W40245  48.204   9.781  49.676
48322W        W40246   1.778  22.752  53.793
48323W        W40247  21.233  28.742  53.812
48324W        W40248  13.732  27.233  49.704
48325W        W40249  11.249  47.673  52.411
48326W        W40250  34.231  21.756  50.122
48327W        W40251  34.700  44.719  50.578
48328W        W40252  25.233  25.224  50.578
48329W        W40253  37.238  25.256  52.886
48330W        W40254  35.198  16.738  49.704
48331W        W40255  20.258  18.744  50.580
48332W        W40256   9.265  16.267  49.670
48333W        W40257  40.192  14.760  52.892
48334W        W40258  37.714  33.199  50.607
48335W        W40259  28.248  10.743  51.495
48336W        W40260  43.192  28.205  49.667
48337W        W40261   1.281   7.253  51.956
48338W        W40262   8.245  21.714  52.414
48339W        W40263  27.242  44.203  52.408
48340W        W40264  23.743  47.712  51.981
48341W        W40265  45.703  39.686  49.697
48342W        W40266  28.703   0.250  52.426
48343W        W40267  40.720  17.244  53.360
48344W        W40268  32.240  33.224  53.326
48345W        W40269  11.237  25.751  52.872
48346W        W40270  31.725  12.257  51.952
48347W        W40271  16.764  41.729  53.815
48348W        W40272  35.721  14.749  51.059
48349W        W40273  12.277  28.723  49.672
48350W        W40274  45.713  16.256  53.794
48351W        W40275  16.236  42.717  52.422
48352W        W40276   3.758  36.734  51.516
48353W        W40277  20.754  26.726  51.050
48354W        W40278  28.222  47.705  51.530
48355W        W40279  39.706  14.236  50.151
48356W        W40280  28.207   7.776  50.580
48357W        W40281  19.254  39.216  50.134
48358W        W40282  24.238  39.714  51.508
48359W        W40283  24.747  32.205  51.513
48360W        W40284   0.288  40.687  53.802
48361W        W40285  37.190   9.244  52.419
48362W        W40286  11.765  39.694  51.976
48363W        W40287  25.231  43.217  51.491
48364W        W40288  27.253  25.726  51.504
48365W        W40289   3.273   0.795  53.773
48366W        W40290  33.230  34.713  51.514
48367W        W40291  12.767  16.254  52.427
48368W        W40292  43.207  31.737  50.154
48369W        W40293   4.289  12.245  52.868
48370W        W40294   0.751   1.754  51.990
48371W        W40295  35.717   2.257  52.416
48372W        W40296  42.219  16.267  50.133
48373W        W40297  11.270  26.745  52.430
48374W        W40298   0.296  47.173  52.900
48375W        W40299  48.198  34.707  51.946
48376W        W40300   4.244  34.727  51.974
48377W        W40301  15.227  32.699  50.585
48378W        W40302  33.744  20.725  49.701
48379W        W40303  48.174  38.727  50.128
48380W        W40304   6.244   7.255  53.809
48381W        W40305  19.224  26.207  50.126
48382W        W40306  37.194  44.195  49.687
48383W        W40307  45.219  11.757  53.780
48384W        W40308  22.751  12.762  52.431
48385W        W40309  14.731  14.734  50.131
48386W        W40310  10.261  41.718  50.614
48387W        W40311   0.783   2.259  49.688
48388W        W40312  25.746  23.756  50.616
48389W        W40313  30.710  29.239  50.158
48390W        W40314   0.754  43.187  50.614
48391W        W40315  24.260  31.220  53.350
48392W        W40316  35.724  36.236  49.679
48393W        W40317  16.231  14.240  51.515
48394W        W40318  22.717  35.705  50.149
48395W        W40319  45.677  41.204  50.598
48396W        W40320  14.237  32.199  50.599
48397W        W40321  33.242   5.781  52.427
48398W        W40322   3.790  24.752  51.535
48399W        W40323   4.249  38.729  52.426
48400W        W40324   7.241  45.180  51.964
48401W        W40325   1.291  10.255  52.859
48402W        W40326  42.729   9.270  51.506
48403W        W40327   9.737  40.689  49.701
48404W        W40328   0.779  15.271  53.773
48405W        W40329  13.768  20.220  52.441
48406W        W40330  25.211  36.730  50.130
48407W        W40331  14.250  41.195  53.805
48408W        W40332  32.718  25.226  49.697
48409W        W40333  14.738   9.284  52.901
48410W        W40334   9.741  14.243  53.332
48411W        W40335  21.215  14.235  53.794
48412W        W40336   6.778  45.694  51.956
48413W        W40337  30.741  31.746  50.597
48414W        W40338  24.229  45.720  52.434
48415W        W40339  19.233  13.770  51.070
48416W        W40340  36.210  18.257  52.436
48417W        W40341  10.243  17.222  50.131
48418W        W40342  35.236  47.672  51.034
48419W        W40343  14.727  30.718  52.433
48420W        W40344   5.252  32.716  50.149
48421W        W40345  24.214  13.276  50.129
48422W        W40346   3.251   9.780  51.036
48423W        W40347   4.249   8.239  53.355
48424W        W40348  18.266  29.708  52.443
48425W        W40349   5.242  17.735  53.780
48426W        W40350  22.247  21.243  51.966
48427W        W40351  15.728   5.747  53.336
48428W        W40352  15.229  20.239  51.079
48429W        W40353   3.256  13.730  51.967
48430W        W40354  23.261  20.763  51.535
48431W        W40355  28.215  35.193  52.887
48432W        W40356  22.253   3.290  51.975
48433W        W40357  13.731  23.228  49.677
48434W        W40358  38.719  18.765  52.404
48435W        W40359  26.220  34.196  52.445
48436W        W40360  28.212  37.189  50.133
48437W        W40361   7.741  48.219  50.157
48438W        W40362  11.770  36.696  53.335
48439W        W40363   3.765  21.729  53.805
48440W        W40364  23.260  43.691  49.698
48441W        W40365  46.218  22.249  53.786
48442W        W40366  23.748  16.740  51.070
48443W        W40367   0.270   3.273  49.680
48444W        W40368  20.762  39.710  53.816
48445W        W40369  16.736  12.776  53.790
48446W        W40370  41.209   2.791  52.403
48447W        W40371  16.237  28.236  49.698
48448W        W40372  12.743  15.270  51.493
48449W        W40373  41.214  17.247  50.609
48450W        W40374  29.225  27.207  52.440
48451W        W40375  34.225  41.695  51.975
48452W        W40376   8.237  42.189  52.417
48453W        W40377  12.244   0.252  50.162
48454W        W40378  46.673  47.709  49.709
48455W        W40379   3.763  25.728  53.778
48456W        W40380  32.208   8.754  51.962
48457W        W40381  35.699  18.262  50.596
48458W        W40382  25.745  16.229  50.622
48459W        W40383  16.761   1.779  50.583
48460W        W40384  30.721  42.704  49.669
48461W        W40385  30.246  40.191  53.785
48462W        W40386  47.692  19.249  51.949
48463W        W40387  22.241  10.751  50.143
48464W        W40388  36.200  28.236  50.588
48465W        W40389  16.724  36.224  51.520
48466W        W40390  32.238  46.179  50.587
48467W        W40391  43.703  40.222  50.153
48468W        W40392  27.714  30.740  51.960
48469W        W40393   1.297  32.731  51.506
48470W        W40394   3.764  33.210  52.878
48471W        W40395   5.263   3.752  49.687
48472W        W40396  32.197  45.714  52.443
48473W        W40397  15.744  45.207  53.798
48474W        W40398   5.247  31.221  50.578
48475W        W40399  36.737  10.263  52.439
48476W        W40400  25.742  42.728  51.965
48477W        W40401   0.264  20.248  51.072
48478W        W40402  32.735  23.246  53.317
48479W        W40403  39.694  14.249  53.332
48480W        W40404  30.207  25.734  51.991
48481W        W40405  25.252  46.194  53.797
48482W        W40406  31.725  21.745  50.602
48483W        W40407  24.732  35.739  50.620
48484W        W40408  41.203  30.706  52.422
48485W        W40409  28.205  22.232  53.792
48486W        W40410  29.725   8.784  53.784
48487W        W40411  28.238  17.764  53.782
48488W        W40412   1.767  10.241  52.407
48489W        W40413  17.247  46.216  49.669
48490W        W40414  10.263  17.733  49.672
48491W        W40415  38.206  33.236  50.591
48492W        W40416  38.704  32.212  53.348
48493W        W40417  33.201  33.700  53.357
48494W        W40418  39.224  47.206  50.146
48495W        W40419  30.735   7.278  52.445
48496W        W40420  22.743  34.194  53.339
48497W        W40421  48.194   0.295  51.071
48498W        W40422  47.194  31.207  51.502
48499W        W40423  22.222  11.778  52.881
48500W        W40424  39.717  41.216  53.353
48501W        W40425  27.217  44.201  50.164
48502W        W40426  23.233  33.224  51.042
48503W        W40427   6.764  31.737  51.069
48504W        W40428  24.726  31.220  51.531
48505W        W40429  28.246  31.731  50.596
48506W        W40430   9.260  40.687  49.674
48507W        W40431  27.226  18.732  50.140
48508W        W40432  47.174  11.245  50.154
48509W        W40433   9.266  19.721  51.980
48510W        W40434  27.708  25.737  49.678
48511W        W40435  24.717  16.234  53.785
48512W        W40436  42.201  14.767  53.324
48513W        W40437  32.218  15.737  53.341
48514W        W40438  25.741  32.200  51.054
48515W        W40439   0.259  25.721  49.697
48516W        W40440  26.748   2.267  53.344
48517W        W40441   8.745  43.204  49.689
48518W        W40442  46.685  46.195  52.443
48519W        W40443  19.255   3.749  49.690
48520W        W40444  42.704  20.242  52.903
48521W        W40445  11.246  36.712  51.072
48522W        W40446   2.787   6.775  50.164
48523W        W40447  34.229  46.702  50.592
48524W        W40448   8.272  35.714  50.602
48525W        W40449  43.210  15.262  51.043
48526W        W40450  35.217  34.723  53.346
48527W        W40451  36.707  42.189  53.788
48528W        W40452  18.726  12.257  50.579
48529W        W40453  33.737  20.746  52.894
48530W        W40454   5.260  13.746  50.605
48531W        W40455   2.789  27.742  50.162
48532W        W40456  13.771  20.226  51.062
48533W        W40457  40.714  31.734  51.953
48534W        W40458  39.225  17.737  52.876
48535W        W40459  12.772  37.228  52.412
48536W        W40460  45.711   2.279  50.153
48537W        W40461   7.259  36.216  51.072
48538W        W40462  16.236  46.702  49.669
48539W        W40463   0.284  42.703  51.055
48540W        W40464  20.233   7.246  52.437
48541W        W40465  14.765  26.228  52.415
48542W        W40466  25.239  42.188  51.496
48543W        W40467   9.259  21.727  51.496
48544W        W40468   3.249  34.695  51.052
48545W        W40469  19.243   0.764  53.777
48546W        W40470  36.205  37.238  52.415
48547W        W40471  47.684  23.237  50.602
48548W        W40472  12.260  26.213  51.985
48549W        W40473  14.243  23.244  53.803
48550W        W40474  16.735   5.282  50.138
48551W        W40475   6.750   5.748  53.779
48552W        W40476  17.267  24.224  51.073
48553W        W40477  44.693  18.235  51.526
48554W        W40478  12.766   8.769  51.965
48555W        W40479  22.238   6.266  49.671
48556W        W40480  28.724  24.757  50.597
48557W        W40481  35.718  45.184  52.432
48558W        W40482   6.781  35.193  51.524
48559W        W40483   4.280  39.215  53.359
48560W        W40484  36.735  20.725  53.774
48561W        W40485  19.242   2.275  51.954
48562W        W40486  21.257  30.213  51.949
48563W        W40487  32.728  10.761  51.078
48564W        W40488  36.201  14.764  49.693
48565W        W40489  19.739  37.190  51.051
48566W        W40490   8.241  44.192  51.045
48567W        W40491  45.184   0.754  51.497
48568W        W40492  33.231  24.255  53.807
48569W        W40493  42.727  33.228  52.420
48570W        W40494  38.212  41.197  52.885
48571W        W40495   3.778  11.274  53.808
48572W        W40496  14.242  23.756  51.519
48573W        W40497  30.731  20.218  52.872
48574W        W40498  48.211  11.762  50.155
48575W        W40499   9.249  39.189  49.682
48576W        W40500   3.257   5.247  53.327
48577W        W40501  10.738  13.772  52.415
48578W        W40502   3.783  26.720  50.597
48579W        W40503  11.241  37.199  52.404
48580W        W40504   2.279  14.274  53.816
48581W        W40505  34.235  25.257  52.427
48582W        W40506  23.746  37.720  53.318
48583W        W40507  23.235   6.248  52.894
48584W        W40508  30.720  20.241  53.783
48585W        W40509  44.219  39.697  50.619
48586W        W40510  47.211   5.757  52.434
48587W        W40511  11.755  20.266  51.061
48588W        W40512   1.750  44.692  50.122
48589W        W40513  12.765  15.272  49.686
48590W        W40514  18.757  33.730  49.704
48591W        W40515  45.219  13.731  52.425
48592W        W40516  42.727  16.756  49.693
48593W        W40517  36.699  14.769  52.438
48594W        W40518  25.256  17.227  50.134
48595W        W40519   3.758  30.744  53.350
48596W        W40520  26.250  32.239  52.440
48597W        W40521  12.236  38.230  53.316
48598W        W40522  44.225  43.214  53.331
48599W        W40523  23.740  28.234  53.778
48600W        W40524  21.216  17.730  51.043
48601W        W40525  41.224  34.738  50.142
48602W        W40526  21.734   2.252  51.989
48603W        W40527   4.281  30.225  52.431
48604W        W40528   1.288   0.282  53.352
48605W        W40529  12.770  23.737  49.693
48606W        W40530  43.708  11.240  51.063
48607W        W40531  11.268  21.235  51.991
48608W        W40532  29.216   4.261  53.325
48609W        W40533  13.748  47.213  51.967
48610W        W40534  25.223  47.215  49.699
48611W        W40535  39.719   4.756  52.883
48612W        W40536  17.242  34.739  50.619
48613W        W40537   9.265   4.743  51.991
48614W        W40538  45.218  20.229  49.673
48615W        W40539  38.716  45.704  51.526
48616W        W40540  44.202  12.743  52.434
48617W        W40541  17.250  37.727  51.044
48618W        W40542   5.267   6.273  49.683
48619W        W40543  39.727  16.269  51.069
48620W        W40544  31.737  18.264  51.037
48621W        W40545  32.705  28.711  50.593
48622W        W40546   5.267  24.739  49.709
48623W        W40547  13.275  32.212  52.859
48624W        W40548  45.215  22.734  50.127
48625W        W40549  37.717  34.694  51.504
48626W        W40550  39.687   7.262  51.526
48627W        W40551   0.285  23.751  52.404
48628W        W40552  41.190  27.207  51.983
48629W        W40553  21.257  42.199  50.582
48630W        W40554  32.701  12.245  51.041
48631W        W40555  14.236  39.195  51.530
48632W        W40556  21.265  19.263  53.330
48633W        W40557  29.237   9.739  53.328
48634W        W40558  30.724  33.209  51.064
48635W        W40559  19.229   8.782  51.491
48636W        W40560  32.206  35.724  50.586
48637W        W40561  42.211  23.228  51.495
48638W        W40562   7.260  35.197  51.970
48639W        W40563  43.705  46.679  51.052
48640W        W40564  11.768   3.760  51.053
48641W        W40565  39.205  11.756  49.670
48642W        W40566  35.217  27.749  53.787
48643W        W40567  43.702  32.197  51.507
48644W        W40568  14.770  33.214  49.666
48645W        W40569  43.727  14.258  51.524
48646W        W40570   2.758  14.235  52.406
48647W        W40571  27.734  47.218  52.431
48648W        W40572  30.735   8.771  50.127
48649W        W40573  17.234  47.218  53.336
48650W        W40574  33.697  34.199  50.152
48651W        W40575  12.762  18.761  50.137
48652W        W40576  21.727  41.223  52.876
48653W        W40577  11.769   4.749  50.598
48654W        W40578  45.222  42.703  50.596
48655W        W40579  32.212  26.216  53.807
48656W        W40580  41.718  25.725  51.951
48657W        W40581  32.207  24.738  51.949
48658W        W40582   3.775  13.732  51.990
48659W        W40583  38.715  35.217  52.408
48660W        W40584  16.251  26.745  49.687
48661W        W40585  15.265  25.740  50.591
48662W        W40586  32.230  21.755  50.146
48663W        W40587  33.219  20.223  52.870
48664W        W40588   6.781  42.714  51.524
48665W        W40589  28.245  24.713  50.137
48666W        W40590  48.202  43.211  49.703
48667W        W40591   7.780  11.755  49.671
48668W        W40592  42.200  42.687  53.329
48669W        W40593  27.251  38.732  52.891
48670W        W40594  13.231  19.234  53.322
48671W        W40595  18.265   4.789  52.904
48672W        W40596  26.246   1.756  50.618
48673W        W40597  10.244  40.709  51.979
48674W        W40598  11.238  32.708  53.818
48675W        W40599  11.267  21.257  51.500
48676W        W40600   6.269   8.271  51.503
48677W        W40601  32.216  44.180  50.592
48678W        W40602  46.708  40.695  50.578
48679W        W40603   4.262  44.203  53.334
48680W        W40604   9.235  21.252  51.517
48681W        W40605  17.232  12.256  50.610
48682W        W40606   6.279  17.762  51.514
48683W        W40607  24.242  30.206  50.604
48684W        W40608  10.243   1.762  51.519
48685W        W40609  44.687  16.768  49.682
48686W        W40610  38.219  13.266  51.535
48687W        W40611  24.755  37.229  52.423
48688W        W40612   6.275   5.759  51.526
48689W        W40613   0.269  36.694  51.069
48690W        W40614   2.295  22.252  52.875
48691W        W40615   1.296  27.711  50.141
48692W        W40616  20.758  26.252  51.513
48693W        W40617  27.254  44.707  53.350
48694W        W40618  47.686  19.224  52.860
48695W        W40619  29.244  46.680  50.618
48696W        W40620  18.749  37.710  50.594
48697W        W40621  42.711  45.190  49.677
48698W        W40622  18.227  16.767  52.447
48699W        W40623  34.700  13.252  50.582
48700W        W40624  23.260   2.772  50.610
48701W        W40625  46.224  31.724  52.863
48702W        W40626  12.254  29.720  50.610
48703W        W40627  17.753   5.265  49.667
48704W        W40628  35.234  42.213  52.868
48705W        W40629  35.197  18.266  49.706
48706W        W40630  43.726  37.701  52.422
48707W        W40631   5.771   1.780  51.051
48708W        W40632  36.703  47.691  51.978
48709W        W40633  20.742  12.236  49.693
48710W        W40634  28.228  48.217  52.424
48711W        W40635   3.264  22.258  49.675
48712W        W40636  46.703   8.241  51.518
48713W        W40637   6.245  44.705  53.345
48714W        W40638  35.226  45.221  52.900
48715W        W40639  42.186  17.226  51.045
48716W        W40640  18.247  17.246  53.354
48717W        W40641  48.217  30.244  49.705
48718W        W40642  31.216  15.227  51.054
48719W        W40643  14.237  35.693  49.673
48720W        W40644  33.700   2.763  50.137
48721W        W40645   0.760  41.722  51.059
48722W        W40646   0.260   0.258  53.788
48723W        W40647  29.240  42.195  52.898
48724W        W40648  43.716  13.229  53.341
48725W        W40649  17.235  29.724  53.807
48726W        W40650   0.266  12.235  51.982
48727W        W40651  30.247  31.724  52.409
48728W        W40652  41.698   7.762  53.324
48729W        W40653  31.716  23.232  52.434
48730W        W40654   6.283  23.720  53.779
48731W        W40655  19.264  13.264  52.446
48732W        W40656  19.766  23.218  52.866
48733W        W40657  44.684   4.780  52.428
48734W        W40658   1.275  30.746  50.617
48735W        W40659   5.283  42.700  53.817
48736W        W40660  43.218   1.756  51.052
48737W        W40661  45.211  34.243  51.042
48738W        W40662  47.184  12.777  53.788
48739W        W40663  39.224  26.238  50.128
48740W        W40664  44.199  25.224  50.121
48741W        W40665  12.254  40.716  49.686
48742W        W40666  37.692   7.255  49.705
48743W        W40667  37.734   9.780  50.615
48744W        W40668  13.748  42.198  51.043
48745W        W40669   3.776  37.196  53.324
48746W        W40670  30.226   0.262  51.959
48747W        W40671   6.280  20.217  49.670
48748W        W40672  32.710  20.240  51.047
48749W        W40673  20.728  26.256  53.349
48750W        W40674  43.697  28.740  49.686
48751W        W40675  46.689  27.706  53.319
48752W        W40676  25.234  28.752  50.161
48753W        W40677  12.230  15.245  52.414
48754W        W40678  26.250  15.757  52.414
48755W        W40679   9.272  17.253  50.163
48756W        W40680  35.230   7.761  50.159
48757W        W40681  41.715  35.721  50.133
48758W        W40682   9.755  33.228  49.674
48759W        W40683  24.252  43.690  51.061
48760W        W40684  25.745  46.181  50.150
48761W        W40685  26.225   4.744  52.423
48762W        W40686  18.741  12.230  53.318
48763W        W40687  27.242  43.699  51.060
48764W        W40688  35.223  42.715  53.336
48765W        W40689  39.685  11.261  53.779
48766W        W40690   9.252  16.238  51.076
48767W        W40691  21.221  23.741  53.328
48768W        W40692  45.183  20.258  52.438
48769W        W40693  36.701  19.747  53.786
48770W        W40694  10.238  28.746  51.981
48771W        W40695   6.262  10.775  51.050
48772W        W40696  46.184  28.238  52.406
48773W        W40697  45.678   7.776  51.057
48774W        W40698  36.213  19.262  53.773
48775W        W40699  28.720  23.228  50.142
48776W        W40700   0.278  29.207  53.337
48777W        W40701  14.758  33.200  52.886
48778W        W40702   7.787  42.220  50.595
48779W        W40703  10.777   9.765  51.514
48780W        W40704   3.258   2.750  53.775
48781W        W40705  20.239  46.717  52.412
48782W        W40706  14.769  26.722  51.050
48783W        W40707  37.204  23.247  50.599
48784W        W40708  28.703  41.217  49.678
48785W        W40709  28.251  23.214  53.773
48786W        W40710  24.252  27.255  53.800
48787W        W40711  18.233  33.731  52.873
48788W        W40712  13.248  33.200  51.516
48789W        W40713  38.198   0.285  52.864
48790W        W40714  42.691  18.727  52.433
48791W        W40715  12.754  41.201  52.410
48792W        W40716  38.719  25.720  52.868
48793W        W40717  31.735  34.710  52.431
48794W        W40718  42.191  14.254  52.439
48795W        W40719  36.714  17.747  53.817
48796W        W40720  30.740   7.287  50.121
48797W        W40721   6.778  40.710  51.057
48798W        W40722  47.699   3.269  50.619
48799W        W40723  42.195  25.242  52.860
48800W        W40724  31.221  38.700  51.529
48801W        W40725  20.754  12.771  53.335
48802W        W40726  35.221   8.243  51.955
48803W        W40727   6.279  29.731  52.412
48804W        W40728  18.767  26.243  52.860
48805W        W40729  44.212  30.720  50.165
48806W        W40730  34.702   8.266  51.491
48807W        W40731  21.236   2.765  53.803
48808W        W40732  45.686   5.272  53.781
48809W        W40733  16.256  21.226  52.882
48810W        W40734  43.710  11.753  53.804
48811W        W40735  34.694  44.215  51.953
48812W        W40736  19.255  30.727  50.601
48813W        W40737  39.730   8.283  52.418
48814W        W40738  24.249   1.257  49.690
48815W        W40739   6.268  42.216  51.955
48816W        W40740  32.711  15.743  53.334
48817W        W40741   6.253  11.760  53.812
48818W        W40742  32.202  12.230  49.677
48819W        W40743  37.227  18.762  51.063
48820W        W40744  11.253  41.200  53.803
48821W        W40745   3.292  41.682  51.983
48822W        W40746   0.279  28.720  51.530
48823W        W40747  15.272  11.233  52.885
48824W        W40748  34.194  36.225  53.816
48825W        W40749  36.192  33.233  52.889
48826W        W40750   1.264  33.697  51.048
48827W        W40751   1.781  29.210  51.532
48828W        W40752  40.684  18.725  51.048
48829W        W40753  30.211   7.744  53.339
48830W        W40754  27.746  27.711  51.041
48831W        W40755   8.241  12.270  51.949
48832W        W40756  10.248  28.232  49.691
48833W        W40757   2.276  21.245  53.803
48834W        W40758  14.735  42.722  50.590
48835W        W40759  35.211  41.223  53.810
48836W        W40760  39.685  38.227  51.509
48837W        W40761  36.194   7.770  51.527
48838W        W40762  27.208   7.272  52.887
48839W        W40763   8.282  34.197  51.494
48840W        W40764  32.212  35.223  52.439
48841W        W40765   6.281  37.711  52.446
48842W        W40766  43.211  30.231  52.904
48843W        W40767  20.262  43.710  52.873
48844W        W40768  26.235  32.738  50.593
48845W        W40769  38.221   8.254  53.318
48846W        W40770  27.707  24.750  49.666
48847W        W40771  33.721  30.742  53.348
48848W        W40772   4.258   8.749  51.515
48849W        W40773  33.713  35.736  50.153
48850W        W40774  38.731  12.242  52.883
48851W        W40775  37.700  18.258  51.044
48852W        W40776   1.782  29.237  52.903
48853W        W40777  14.240   0.776  53.799
48854W        W40778  31.738  27.218  52.869
48855W        W40779  31.230  46.196  52.411
48856W        W40780   9.777  36.217  51.982
48857W        W40781   2.246  48.184  53.332
48858W        W40782   0.283  25.220  50.592
48859W        W40783   0.281   1.747  53.791
48860W        W40784   1.779   5.267  50.621
48861W        W40785  13.234  12.264  49.677
48862W        W40786  38.194  23.729  51.526
48863W        W40787  43.719  45.684  53.357
48864W        W40788  32.240  18.223  52.404
48865W        W40789  39.710  14.272  53.798
48866W        W40790  35.193   2.755  49.708
48867W        W40791  24.235  36.714  50.157
48868W        W40792  15.250  48.190  49.670
48869W        W40793  31.211  11.774  53.344
48870W        W40794  31.702  33.713  51.054
48871W        W40795  24.215  31.202  52.423
48872W        W40796  13.270  22.255  51.986
48873W        W40797  38.202  14.264  51.509
48874W        W40798  45.187  13.764  51.521
48875W        W40799  24.249   0.785  50.607
48876W        W40800  47.689  24.230  51.061
48877W        W40801  40.722  46.698  51.949
48878W        W40802   1.768  32.711  51.524
48879W        W40803  33.216   4.283  49.688
48880W        W40804  14.236  31.244  53.316
48881W        W40805  15.274  47.173  53.778
48882W        W40806  22.217  45.695  49.672
48883W        W40807  25.743  37.727  51.038
48884W        W40808  20.240  21.257  51.971
48885W        W40809  36.696  44.718  51.502
48886W        W40810   5.766  40.233  49.678
48887W        W40811  10.241  36.722  50.164
48888W        W40812  46.179  21.763  52.902
48889W        W40813   4.267  36.703  51.526
48890W        W40814  30.233  22.238  51.078
48891W        W40815  31.700  34.241  52.409
48892W        W40816  11.244  40.715  51.976
48893W        W40817   8.248  36.701  53.358
48894W        W40818  36.716  39.194  49.708
48895W        W40819  41.687  24.751  50.578
48896W        W40820   1.265  33.216  52.866
48897W        W40821  26.238  20.249  49.696
48898W        W40822  18.736  15.249  52.865
48899W        W40823  33.738  13.749  51.512
48900W        W40824  32.734  14.276  53.810
48901W        W40825   5.786   1.754  51.533
48902W        W40826  33.726  22.217  52.879
48903W        W40827  19.762  40.190  50.152
48904W        W40828  11.744  10.260  53.805
48905W        W40829  21.259  42.728  51.964
48906W        W40830  37.211  22.233  51.076
48907W        W40831  19.266  27.744  50.148
48908W        W40832  34.717  33.738  50.588
48909W        W40833  10.733  12.763  51.042
48910W        W40834  23.231   1.298  49.698
48911W        W40835  26.755  17.761  51.065
48912W        W40836  38.695   3.760  50.162
48913W        W40837  35.226   9.765  51.039
48914W        W40838   5.264   0.766  49.667
48915W        W40839  33.724   1.770  49.702
48916W        W40840   2.274   6.749  51.053
48917W        W40841   3.779  27.747  52.444
48918W        W40842  12.249  21.743  50.162
48919W        W40843  36.206  38.721  52.407
48920W        W40844   2.788  14.227  51.497
48921W        W40845  23.247  24.252  49.669
48922W        W40846   8.751  13.276  50.621
48923W        W40847   1.273  16.229  50.150
48924W        W40848  30.727   0.289  53.319
48925W        W40849   4.258  40.228  51.523
48926W        W40850  13.759  25.219  51.505
48927W        W40851   7.777  28.219  52.410
48928W        W40852   3.792   8.263  50.134
48929W        W40853  41.223  47.683  50.121
48930W        W40854   8.776   9.780  53.801
48931W        W40855  39.223  21.748  49.678
48932W        W40856  44.709  25.714  52.410
48933W        W40857  17.237  27.746  53.814
48934W        W40858  27.716   2.281  52.871
48935W        W40859   4.281  42.217  52.869
48936W        W40860  30.243  17.263  51.514
48937W        W40861  30.231  40.192  52.420
48938W        W40862  34.701   8.244  49.685
48939W        W40863   4.779  13.767  50.148
48940W        W40864  23.729  19.261  50.606
48941W        W40865  46.708  34.733  53.356
48942W        W40866  39.730   8.237  51.063
48943W        W40867  12.255  14.760  51.956
48944W        W40868  30.720  21.246  52.864
48945W        W40869  10.244   2.788  52.877
48946W        W40870  12.270  23.222  51.512
48947W        W40871  10.279   1.283  50.587
48948W        W40872  29.219  17.749  52.861
48949W        W40873   1.281  16.224  49.670
48950W        W40874  23.759  36.227  53.344
48951W        W40875  32.735   1.271  50.581
48952W        W40876  32.214  24.253  51.975
48953W        W40877  15.234  35.712  53.359
48954W        W40878   1.778  24.243  51.979
48955W        W40879  16.741   2.784  50.588
48956W        W40880  23.717  13.258  50.584
48957W        W40881  24.742   8.268  50.140
48958W        W40882  47.205  25.730  52.871
48959W        W40883  33.739  21.716  52.433
48960W        W40884  20.742   3.262  52.417
48961W        W40885  47.676  31.238  53.807
48962W        W40886  47.199  25.720  51.512
48963W        W40887  38.708  43.719  51.521
48964W        W40888  15.740  17.223  51.070
48965W        W40889  31.733  25.750  49.699
48966W        W40890  41.211  12.278  49.680
48967W        W40891   3.253  31.211  49.708
48968W        W40892  29.709  23.753  52.403
48969W        W40893   5.256  27.242  53.345
48970W        W40894   2.782  29.239  51.070
48971W        W40895  47.188   0.768  52.436
48972W        W40896  24.251  46.198  52.868
48973W        W40897  34.726   4.283  50.593
48974W        W40898  46.179  34.207  51.982
48975W        W40899  38.728  22.747  51.076
48976W        W40900   7.786   1.791  49.690
48977W        W40901  24.241  20.754  50.143
48978W        W40902  28.238  42.716  50.579
48979W        W40903   0.789  17.727  50.615
48980W        W40904   2.255  41.213  52.866
48981W        W40905  28.219  21.239  51.976
48982W        W40906  31.217  24.260  53.781
48983W        W40907  28.252  18.732  52.444
48984W        W40908  26.720  10.735  53.327
48985W        W40909  25.719   1.758  53.817
48986W        W40910  21.233  10.769  51.528
48987W        W40911  46.697  38.712  50.592
48988W        W40912  31.724   1.251  51.073
48989W        W40913  26.208  45.697  53.797
48990W        W40914   1.284  42.708  51.509
48991W        W40915  32.719  34.228  51.987
48992W        W40916   8.271  26.239  53.334
48993W        W40917  11.243  40.700  51.064
48994W        W40918  40.232  20.736  52.425
48995W        W40919   5.787   5.284  52.423
48996W        W40920  22.758  28.714  50.123
48997W        W40921  24.753  22.227  51.967
48998W        W40922  32.728  11.778  51.492
48999W        W40923   3.783  26.752  53.803
49000W        W40924  41.225   0.774  52.411
49001W        W40925  47.192  43.228  49.665
49002W        W40926  23.760  35.201  52.874
49003W        W40927  39.235  22.243  52.894
49004W        W40928  36.733  10.765  52.423
49005W        W40929  47.181  38.229  49.694
49006W        W40930   9.780  21.217  51.987
49007W        W40931  22.744  37.219  50.137
49008W        W40932  17.741   9.770  49.681
49009W        W40933  46.207  42.701  53.321
49010W        W40934  44.192  38.717  53.349
49011W        W40935  15.242  28.203  52.417
49012W        W40936  20.755  24.259  51.961
49013W        W40937  36.718  25.211  53.319
49014W        W40938   3.257   3.268  50.618
49015W        W40939  18.738  27.206  52.878
49016W        W40940  35.710  15.747  50.144
49017W        W40941  43.197  21.756  51.062
49018W        W40942  28.235  12.762  53.782
49019W        W40943  47.711  11.268  52.437
49020W        W40944   5.257  17.271  50.135
49021W        W40945  37.201  13.760  50.163
49022W        W40946  21.249  39.202  50.160
49023W        W40947  33.730  27.224  49.702
49024W        W40948  11.749  34.698  50.145
49025W        W40949  46.179  20.221  49.668
49026W        W40950   3.285  31.706  50.143
49027W        W40951  21.243  23.255  52.869
49028W        W40952  42.228  29.735  50.148
49029W        W40953  13.248  20.232  51.490
49030W        W40954  10.264   5.771  50.581
49031W        W40955  38.234   6.269  53.816
49032W        W40956  46.209  13.735  49.669
49033W        W40957  36.202  30.748  50.610
49034W        W40958  31.205   9.769  49.683
49035W        W40959   3.769  11.257  51.517
49036W        W40960  23.741  41.699  51.955
49037W        W40961   0.792   7.280  51.959
49038W        W40962  18.758  21.222  51.991
49039W        W40963   3.272  22.215  51.520
49040W        W40964  27.237  25.737  52.426
49041W        W40965   1.295  28.211  53.349
49042W        W40966  14.732  16.728  51.529
49043W        W40967  19.256  24.726  50.147
49044W        W40968  22.258  28.723  51.076
49045W        W40969  38.725  42.230  50.145
49046W        W40970  29.720  12.738  51.948
49047W        W40971  40.715   2.793  51.980
49048W        W40972   0.778  22.224  51.043
49049W        W40973  39.721  11.771  49.692
49050W        W40974  11.750   3.261  51.531
49051W        W40975  28.240  34.737  53.357
49052W        W40976  14.765  42.691  51.070
49053W        W40977  30.705   1.794  52.892
49054W        W40978   8.737  13.232  52.894
49055W        W40979  35.721  38.718  53.351
49056W        W40980  41.685  42.202  53.780
49057W        W40981   4.258  47.692  51.040
49058W        W40982  45.702   7.260  52.417
49059W        W40983  33.701  14.261  53.807
49060W        W40984  43.725   5.781  50.600
49061W        W40985  26.748  31.703  52.861
49062W        W40986   6.243   5.277  50.164
49063W        W40987  41.715  43.184  51.957
49064W        W40988  39.697  13.251  51.041
49065W        W40989  45.699  11.239  51.527
49066W        W40990   3.288  32.698  50.136
49067W        W40991   3.283   2.278  51.976
49068W        W40992  41.692  37.719  51.523
49069W        W40993  30.719   2.265  51.533
49070W        W40994  20.762  11.765  51.505
49071W        W40995  21.735  29.240  52.899
49072W        W40996  17.726   0.267  50.124
49073W        W40997  43.191  13.246  52.415
49074W        W40998  25.213  21.763  51.499
49075W        W40999  26.718  46.722  51.971
49076W        W41000  13.745  27.728  53.810
49077W        W41001   8.237  33.740  52.901
49078W        W41002   5.246  26.751  52.886
49079W        W41003  42.199   4.280  50.149
49080W        W41004  46.697  20.738  51.508
49081W        W41005  13.767   8.251  50.600
49082W        W41006   9.768  18.769  52.442
49083W        W41007  45.190  47.678  51.992
49084W        W41008  40.697  25.252  53.330
49085W        W41009  28.251   5.268  50.619
49086W        W41010  25.737  17.770  53.810
49087W        W41011  10.738  35.706  49.685
49088W        W41012   1.773  26.754  51.979
49089W        W41013  31.200  37.205  52.880
49090W        W41014  40.204  45.215  49.674
49091W        W41015  29.237  10.251  50.129
49092W        W41016  11.264  10.280  51.532
49093W        W41017  45.203  35.730  51.975
49094W        W41018  10.762  12.744  52.899
49095W        W41019  20.238  15.230  53.321
49096W        W41020  39.699  22.256  52.872
49097W        W41021  39.709   4.744  51.960
49098W        W41022  30.726  45.707  49.704
49099W        W41023  10.278  47.215  50.591
49100W        W41024  42.185  30.715  51.991
49101W        W41025  37.232  32.700  51.502
49102W        W41026  35.192  16.755  50.139
49103W        W41027  34.731  19.250  53.345
49104W        W41028   7.758  31.225  50.128
49105W        W41029  17.737  47.673  50.141
49106W        W41030  26.745  45.180  50.141
49107W        W41031   9.238   0.751  51.974
49108W        W41032  36.719  42.725  51.044
49109W        W41033  13.772  27.245  53.345
49110W        W41034  46.181  15.268  52.888
49111W        W41035  18.259  43.679  53.808
49112W        W41036  33.729  30.203  51.493
49113W        W41037  17.268  19.742  53.807
49114W        W41038  32.215  47.217  52.412
49115W        W41039  47.688  45.194  52.878
49116W        W41040  23.758  12.244  50.610
49117W        W41041  10.241  38.713  53.799
49118W        W41042  15.757  16.272  49.673
49119W        W41043  12.272  10.766  53.319
49120W        W41044  35.211   0.773  53.349
49121W        W41045  42.719   6.262  49.685
49122W        W41046  47.709  41.218  50.603
49123W        W41047  12.770  25.216  51.522
49124W        W41048  47.220  44.196  52.419
49125W        W41049  26.731  20.223  50.594
49126W        W41050   5.291  25.245  53.775
49127W        W41051  13.751   5.784  52.424
49128W        W41052  36.729   0.769  50.606
49129W        W41053  30.736  11.759  53.793
49130W        W41054  38.199  39.233  51.060
49131W        W41055  32.233  32.210  50.123
49132W        W41056  34.233  35.737  52.434
49133W        W41057  32.741  31.209  51.044
49134W        W41058  16.272  41.189  52.881
49135W        W41059  48.176  41.724  50.164
49136W        W41060  42.189  42.217  51.953
49137W        W41061   3.248  32.739  53.791
49138W        W41062   6.781  44.702  51.968
49139W        W41063   2.264  41.216  51.061
49140W        W41064  18.222  37.225  51.989
49141W        W41065  34.698  17.251  51.989
49142W        W41066  16.724  40.729  53.785
49143W        W41067  27.230  41.707  51.955
49144W        W41068  13.753  34.216  51.976
49145W        W41069  14.730  28.238  52.444
49146W        W41070   9.268  35.726  52.413
49147W        W41071  39.195  47.671  50.155
49148W        W41072  19.244  43.183  49.686
49149W        W41073   4.748   5.278  49.673
49150W        W41074  34.723   6.283  53.772
49151W        W41075  22.752   6.284  51.047
49152W        W41076   7.239  19.763  50.584
49153W        W41077  42.691  42.192  51.050
49154W        W41078   8.276  31.232  50.132
49155W        W41079  29.708  21.253  51.047
49156W        W41080  27.224  27.241  50.581
49157W        W41081   6.743  23.230  52.878
49158W        W41082   7.763  14.748  49.671
49159W        W41083  18.736  34.232  49.678
49160W        W41084  34.732  25.257  53.783
49161W        W41085  13.268   7.272  50.130
49162W        W41086  32.216   1.254  51.971
49163W        W41087  19.742  36.197  51.041
49164W        W41088  47.205  43.190  50.580
49165W        W41089  33.700  43.680  50.164
49166W        W41090  35.219  41.185  51.989
49167W        W41091  18.755  15.759  51.035
49168W        W41092  38.721  31.203  50.137
49169W        W41093  16.232  41.729  53.337
49170W        W41094  27.742  23.212  52.904
49171W        W41095  12.761  46.202  49.707
49172W        W41096  21.253  12.730  51.075
49173W        W41097  25.250  43.193  51.058
49174W        W41098  27.748   0.259  53.322
49175W        W41099  17.230  33.218  50.150
49176W        W41100  43.699  26.708  52.884
49177W        W41101   4.289   9.250  49.676
49178W        W41102  30.204  27.729  52.436
49179W        W41103  39.730  28.707  51.519
49180W        W41104  36.237  10.283  52.435
49181W        W41105   2.790  11.246  50.606
49182W        W41106  47.218  36.701  53.332
49183W        W41107  29.713  29.749  51.495
49184W        W41108  30.705  35.224  53.802
49185W        W41109  37.192   4.292  53.798
49186W        W41110  25.223  39.224  50.132
49187W        W41111  18.738  20.758  49.693
49188W        W41112  19.268   7.773  51.983
49189W        W41113   4.755  41.228  53.772
49190W        W41114  27.722  36.224  50.610
49191W        W41115  26.754  22.739  52.448
49192W        W41116  20.748   8.274  50.584
49193W        W41117  20.753  22.733  51.522
49194W        W41118  36.239  26.722  50.603
49195W        W41119  38.192  22.217  51.520
49196W        W41120  34.215  19.256  49.693
49197W        W41121  13.268  39.186  49.708
49198W        W41122  45.214  15.239  53.773
49199W        W41123  30.734  22.246  52.868
49200W        W41124  38.718  22.221  53.329
49201W        W41125  35.227  26.250  50.581
49202W        W41126  10.758  48.191  49.685
49203W        W41127  42.727  24.719  50.590
49204W        W41128  33.741  13.239  52.896
49205W        W41129  43.201  32.708  53.803
49206W        W41130  41.710   8.742  51.524
49207W        W41131  42.717  19.726  50.611
49208W        W41132   1.773  18.769  52.421
49209W        W41133   4.780   8.241  50.158
49210W        W41134  24.248  38.728  50.157
49211W        W41135  38.195  17.236  52.888
49212W        W41136  40.688  41.222  51.950
49213W        W41137  35.734   4.775  52.418
49214W        W41138   4.253  10.782  52.429
49215W        W41139  29.227   6.241  52.411
49216W        W41140  40.228  45.176  53.784
49217W        W41141  16.732   6.262  51.038
49218W        W41142  27.719   7.250  51.042
49219W        W41143  47.703  14.751  51.053
49220W        W41144  25.747  38.199  50.149
49221W        W41145  28.229  29.750  50.124
49222W        W41146  40.692  17.236  49.705
49223W        W41147  30.219  14.270  53.812
49224W        W41148  16.748  11.739  49.672
49225W        W41149  14.732  47.678  50.619
49226W        W41150  23.245  18.726  49.668
49227W        W41151  15.267   9.250  51.986
49228W        W41152  27.713  17.257  50.612
49229W        W41153  26.755  11.777  49.706
49230W        W41154   6.786  30.212  50.124
49231W        W41155  38.733  39.202  51.064
49232W        W41156  34.703  26.221  51.971
49233W        W41157  47.207  48.207  50.586
49234W        W41158   0.796  12.739  50.588
49235W        W41159  34.732   8.746  53.322
49236W        W41160  27.717  22.739  50.148
49237W        W41161  43.719  13.763  52.881
49238W        W41162  31.731  19.735  50.156
49239W        W41163   9.772   1.779  51.953
49240W        W41164  24.750   4.763  52.873
49241W        W41165  19.723   2.260  51.043
49242W        W41166  21.219   0.279  53.805
49243W        W41167   5.769  18.250  49.678
49244W        W41168  12.259  38.187  52.888
49245W        W41169  48.182  15.732  52.890
49246W        W41170  25.250   1.750  52.425
49247W        W41171   7.742  42.688  49.709
49248W        W41172  25.211  32.705  52.445
49249W        W41173  40.693  31.247  50.124
49250W        W41174   7.749  44.204  53.775
49251W        W41175  13.250  21.224  51.948
49252W        W41176  35.692  13.252  52.872
49253W        W41177  23.250  25.708  50.601
49254W        W41178  42.204   1.295  51.036
49255W        W41179  30.711  34.226  51.990
49256W        W41180  46.719  17.237  53.803
49257W        W41181   2.296  30.230  49.689
49258W        W41182  20.741  24.226  52.405
49259W        W41183  19.751  42.691  50.595
49260W        W41184  17.229  35.221  49.700
49261W        W41185   6.765  34.231  49.666
49262W        W41186  11.272   4.759  53.342
49263W        W41187  29.217   3.789  53.778
49264W        W41188  26.740   7.741  51.525
49265W        W41189  34.694  30.740  51.053
49266W        W41190   9.262  40.697  51.513
49267W        W41191  38.694  27.232  52.446
49268W        W41192  19.734  26.748  52.432
49269W        W41193  24.230  43.690  50.166
49270W        W41194  40.217  41.222  52.862
49271W        W41195  12.746  17.756  53.351
49272W        W41196  35.219  19.236  51.535
49273W        W41197  34.231  11.745  53.336
49274W        W41198  10.738  37.720  52.427
49275W        W41199  16.232  15.253  51.533
49276W        W41200  26.739   0.268  50.138
49277W        W41201  41.685  14.770  50.159
49278W        W41202  16.723  45.710  49.694
49279W        W41203   1.297  24.226  51.990
49280W        W41204   3.271  16.772  52.878
49281W        W41205  47.179   0.761  51.052
49282W        W41206  33.208  10.252  52.868
49283W        W41207  17.756  31.747  52.445
49284W        W41208  30.217  41.203  51.062
49285W        W41209  42.192  22.262  52.446
49286W        W41210  15.733  40.209  50.607
49287W        W41211  42.714  43.215  50.616
49288W        W41212   7.781  25.709  52.904
49289W        W41213  22.753  11.234  51.979
49290W        W41214  38.697  34.230  51.056
49291W        W41215  16.732  45.217  51.952
49292W        W41216  17.726  34.721  51.066
49293W        W41217   5.287  34.717  52.876
49294W        W41218  44.689  32.202  53.794
49295W        W41219  35.741  31.234  52.880
49296W        W41220  41.689  43.185  53.324
49297W        W41221   7.283  23.252  51.042
49298W        W41222   9.766  21.726  51.961
49299W        W41223  36.698  33.235  50.609
49300W        W41224  42.215   0.798  53.798
49301W        W41225   8.774  43.199  51.037
49302W        W41226  43.179  29.214  53.799
49303W        W41227  23.732  19.226  52.860
49304W        W41228  43.184  44.718  52.403
49305W        W41229  12.751  45.213  50.138
49306W        W41230  10.767  19.234  49.697
49307W        W41231  27.707  18.232  51.971
49308W        W41232  15.266  16.734  51.067
49309W        W41233  44.689  27.247  50.580
49310W        W41234  38.208  17.253  53.323
49311W        W41235   9.746  39.206  52.892
49312W        W41236  14.771   3.767  53.332
49313W        W41237  21.759  20.745  51.065
49314W        W41238   7.270  44.185  51.973
49315W        W41239   1.279  22.232  51.513
49316W        W41240  15.235   5.289  51.048
49317W        W41241  15.227  45.685  53.341
49318W        W41242  31.747  41.710  50.141
49319W        W41243   3.247  22.256  50.608
49320W        W41244  32.220  48.173  51.518
49321W        W41245  18.750  48.213  52.429
49322W        W41246  23.216  47.198  52.876
49323W        W41247  17.739  24.753  51.072
49324W        W41248  45.697  37.222  53.344
49325W        W41249   7.748  38.722  49.667
49326W        W41250  17.237  48.179  53.783
49327W        W41251  42.203  44.218  51.500
49328W        W41252  17.723  27.243  52.444
49329W        W41253  17.723   4.749  52.870
49330W        W41254  32.198   3.263  51.054
49331W        W41255   1.267  30.249  51.034
49332W        W41256   8.259  41.727  49.682
49333W        W41257  23.246  45.211  50.582
49334W        W41258  10.252   2.757  50.151
49335W        W41259  29.727  10.760  53.329
49336W        W41260  24.223  45.692  50.585
49337W        W41261  29.212  40.219  51.049
49338W        W41262  45.687  12.737  51.493
49339W        W41263  19.741  38.225  50.585
49340W        W41264  25.243  20.746  51.040
49341W        W41265   8.238  33.198  51.961
49342W        W41266  36.228  32.198  51.954
49343W        W41267   9.281  30.710  52.881
49344W        W41268  18.264   6.283  51.071
49345W        W41269  26.726  47.712  51.498
49346W        W41270   1.252  25.737  52.442
49347W        W41271  17.736  20.725  49.671
49348W        W41272   6.766  13.249  52.897
49349W        W41273  44.193  24.251  53.356
49350W        W41274  42.219  13.232  50.613
49351W        W41275  25.742  15.227  51.511
49352W        W41276  39.693  20.240  51.529
49353W        W41277  28.219  10.737  51.959
49354W        W41278   1.777  11.754  53.351
49355W        W41279  35.723  22.249  53.809
49356W        W41280   7.743  48.181  50.591
49357W        W41281   7.266  43.198  50.158
49358W        W41282  35.711  18.750  51.509
49359W        W41283  11.245  25.218  52.881
49360W        W41284   3.783  29.723  53.811
49361W        W41285   2.262   6.752  52.428
49362W        W41286  43.694  23.243  52.411
49363W        W41287   6.751  24.719  51.988
49364W        W41288  12.258  46.709  49.678
49365W        W41289  33.227  32.241  53.800
49366W        W41290  22.215  15.732  49.699
49367W        W41291  32.703   3.778  50.129
49368W        W41292  29.213   0.272  53.790
49369W        W41293  39.190  21.741  52.887
49370W        W41294  47.175   1.278  52.418
49371W        W41295  31.218  47.701  53.320
49372W        W41296   5.752  48.202  51.042
49373W        W41297  27.725  37.191  50.592
49374W        W41298  39.722  37.229  52.868
49375W        W41299  28.232  35.692  51.500
49376W        W41300  35.699  20.725  52.890
49377W        W41301  13.250  23.747  51.525
49378W        W41302  17.246   0.791  52.417
49379W        W41303   9.253  48.182  53.811
49380W        W41304  32.742  47.685  53.779
49381W        W41305  44.218  44.685  53.810
49382W        W41306  20.254  29.227  53.811
49383W        W41307  26.227  36.197  52.419
49384W        W41308   7.747  24.214  50.131
49385W        W41309  36.716  30.741  51.953
49386W        W41310  20.747  45.200  51.515
49387W        W41311  46.214  38.195  50.600
49388W        W41312  12.737   4.289  52.436
49389W        W41313  11.247   5.280  49.704
49390W        W41314  31.228  29.247  52.429
49391W        W41315  33.732  26.233  51.058
49392W        W41316  11.263  17.229  51.529
49393W        W41317  41.716   8.274  52.421
49394W        W41318  22.256  41.186  51.070
49395W        W41319  21.740  38.735  53.805
49396W        W41320  32.702  34.712  52.870
49397W        W41321  26.246  33.233  52.870
49398W        W41322  27.723  29.239  52.426
49399W        W41323  31.738  16.259  51.962
49400W        W41324   7.755  16.738  49.691
49401W        W41325  39.198  16.762  51.072
49402W        W41326  18.249   5.281  50.612
49403W        W41327  38.725  15.271  51.042
49404W        W41328  20.748  28.215  53.358
49405W        W41329  38.195   4.257  52.884
49406W        W41330  45.687  26.745  51.508
49407W        W41331  24.254  46.194  51.977
49408W        W41332  33.734  21.226  52.436
49409W        W41333  40.695  32.717  53.329
49410W        W41334  21.734  39.695  50.585
49411W        W41335  13.262  16.228  49.665
49412W        W41336  26.752   9.762  52.896
49413W        W41337   0.772   5.784  53.803
49414W        W41338  39.224  11.772  51.051
49415W        W41339  47.208  20.241  53.776
49416W        W41340  17.760  14.228  53.354
49417W        W41341  14.256  27.709  52.406
49418W        W41342  39.702   1.783  53.330
49419W        W41343  12.747  46.213  51.491
49420W        W41344  27.244  32.222  51.499
49421W        W41345  41.199  11.262  51.535
49422W        W41346  33.226  40.225  51.984
49423W        W41347  15.234   4.269  53.330
49424W        W41348  25.715  42.707  51.076
49425W        W41349  39.714  23.746  51.957
49426W        W41350  32.701  15.728  53.807
49427W        W41351  32.202  46.676  51.529
49428W        W41352  14.742   8.257  50.151
49429W        W41353   5.263  36.692  51.535
49430W        W41354  14.766  15.256  51.074
49431W        W41355  32.734  35.217  52.410
49432W        W41356  41.716  14.227  53.792
49433W        W41357  38.204  37.690  49.697
49434W        W41358  17.236  44.692  52.411
49435W        W41359  40.193  18.748  50.146
49436W        W41360   7.746  12.272  52.905
49437W        W41361  17.721   9.238  52.879
49438W        W41362  39.202  30.741  50.153
49439W        W41363  32.231   3.749  51.527
49440W        W41364  34.237  18.260  52.410
49441W        W41365  47.717  31.733  51.528
49442W        W41366  44.187   3.266  51.067
49443W        W41367  36.221  32.743  51.959
49444W        W41368  24.736  31.246  49.682
49445W        W41369  39.692  38.721  53.798
49446W        W41370  22.754  35.695  52.902
49447W        W41371  12.730   3.789  51.490
49448W        W41372  15.248   5.290  52.886
49449W        W41373   8.283  46.710  51.978
49450W        W41374  16.236  10.734  53.335
49451W        W41375  43.180   6.243  51.490
49452W        W41376  18.266  19.735  50.128
49453W        W41377  47.212  30.246  53.801
49454W        W41378   8.751  13.252  53.340
49455W        W41379  18.752  42.208  53.790
49456W        W41380  20.753  38.188  51.991
49457W        W41381  20.733   5.288  51.990
49458W        W41382  16.271  32.727  51.977
49459W        W41383  17.760   2.295  51.058
49460W        W41384  22.222  11.237  51.035
49461W        W41385  19.725   0.282  49.679
49462W        W41386   1.284  17.222  50.133
49463W        W41387  23.238  26.229  52.886
49464W        W41388  10.240  28.238  53.343
49465W        W41389  36.716  22.717  50.145
49466W        W41390   2.787  23.724  50.583
49467W        W41391  29.232  36.235  53.814
49468W        W41392  13.748   3.292  52.423
49469W        W41393  30.209  43.220  50.122
49470W        W41394  30.731  22.749  51.061
49471W        W41395  14.240  46.196  52.438
49472W        W41396  21.231  32.726  53.778
49473W        W41397  39.190  30.737  52.415
49474W        W41398  47.196  26.735  51.948
49475W        W41399   0.284  42.215  50.601
49476W        W41400   9.273   1.278  52.430
49477W        W41401  33.705  43.228  49.705
49478W        W41402  34.723  38.690  53.816
49479W        W41403  38.230   5.751  50.151
49480W        W41404   9.751  44.200  53.782
49481W        W41405  38.698   3.781  51.491
49482W        W41406  46.707  26.739  51.974
49483W        W41407   7.739  28.738  52.414
49484W        W41408   1.785  40.711  50.584
49485W        W41409  30.241  11.234  50.121
49486W        W41410  31.744  13.249  51.948
49487W        W41411   4.269  17.263  51.514
49488W        W41412   3.275  40.191  49.680
49489W        W41413  31.204  10.766  50.139
49490W        W41414  22.717  22.737  49.676
49491W        W41415  23.215  23.760  53.327
49492W        W41416   1.275  40.230  53.337
49493W        W41417  22.754   4.288  50.141
49494W        W41418  44.206  37.690  49.670
49495W        W41419  39.690  21.732  51.961
49496W        W41420  14.266  13.246  51.526
49497W        W41421  27.234  19.265  50.599
49498W        W41422  40.693   3.290  50.148
49499W        W41423  15.266  24.750  52.869
49500W        W41424  10.757  39.715  52.436
49501W        W41425  27.244  17.271  53.345
49502W        W41426  24.212  38.204  50.164
49503W        W41427  33.709  43.700  53.790
49504W        W41428  36.209  33.222  52.444
49505W        W41429  40.694  15.758  53.796
49506W        W41430  27.714  21.763  50.155
49507W        W41431   4.271  23.739  51.950
49508W        W41432  17.264  22.738  50.140
49509W        W41433  43.203   2.766  50.143
49510W        W41434  16.249   6.251  53.783
49511W        W41435  18.753  18.753  52.876
49512W        W41436  36.214   2.285  53.321
49513W        W41437  15.274  13.757  50.599
49514W        W41438  34.221  21.257  51.960
49515W        W41439  36.191  24.751  51.068
49516W        W41440  10.237   4.776  51.075
49517W        W41441  26.734  32.238  51.044
49518W        W41442  41.230  29.205  50.581
49519W        W41443  30.747  31.702  53.346
49520W        W41444  24.211  19.747  52.886
49521W        W41445  19.756  27.217  50.581
49522W        W41446   2.295  22.757  49.683
49523W        W41447   6.247  37.225  51.496
49524W        W41448   6.247  38.736  50.156
49525W        W41449  21.216   9.256  51.520
49526W        W41450  11.738  12.252  52.434
49527W        W41451  18.239  33.212  53.798
49528W        W41452  43.214  39.732  50.160
49529W        W41453  38.224  46.217  51.518
49530W        W41454  34.732  44.188  50.599
49531W        W41455  29.749  13.266  51.955
49532W        W41456  19.227  46.708  52.868
49533W        W41457   0.758  26.715  51.495
49534W        W41458  27.714  21.221  50.134
49535W        W41459  17.741  17.244  50.125
49536W        W41460  29.245   3.780  53.344
49537W        W41461  41.196  25.755  50.133
49538W        W41462  37.226  12.740  49.684
49539W        W41463   1.271  29.203  52.423
49540W        W41464  33.240   1.282  52.873
49541W        W41465   0.751  27.751  50.595
49542W        W41466  29.715  13.274  53.803
49543W        W41467   2.776  19.743  52.403
49544W        W41468  12.232  44.676  52.404
49545W        W41469  13.235  46.213  52.881
49546W        W41470   5.270   3.247  51.050
49547W        W41471  12.266  39.210  52.876
49548W        W41472  44.682  19.232  52.891
49549W        W41473  44.211   0.766  51.051
49550W        W41474  12.249  21.258  53.772
49551W        W41475  45.211   7.744  51.491
49552W        W41476  35.692  15.245  53.809
49553W        W41477  14.227  35.224  49.688
49554W        W41478  11.745   6.778  51.508
49555W        W41479  46.213  35.229  52.423
49556W        W41480  17.746   5.249  52.889
49557W        W41481  14.250  27.745  53.808
49558W        W41482  14.755  30.233  51.052
49559W        W41483   4.790  28.717  50.125
49560W        W41484  48.173  29.727  49.687
49561W        W41485  45.219  19.754  50.124
49562W        W41486  17.238   9.240  51.988
49563W        W41487  34.241  13.747  52.862
49564W        W41488  38.717  26.213  52.901
49565W        W41489  31.234  39.705  51.065
49566W        W41490  48.216  45.685  51.507
49567W        W41491  14.262   1.771  53.348
49568W        W41492  10.762  28.748  51.527
49569W        W41493  19.226  33.738  51.499
49570W        W41494   9.752  32.225  52.890
49571W        W41495   1.251  39.211  52.882
49572W        W41496   8.266   4.767  49.699
49573W        W41497   3.250  34.229  51.970
49574W        W41498  39.729  39.212  52.881
49575W        W41499  11.752   0.776  50.609
49576W        W41500  43.696   1.295  52.407
49577W        W41501  21.761  13.251  52.407
49578W        W41502  40.709  11.259  51.071
49579W        W41503  11.750  37.719  50.157
49580W        W41504  33.737  13.243  51.947
49581W        W41505  29.247  27.206  52.866
49582W        W41506  23.217   3.753  52.901
49583W        W41507  38.235  10.242  53.813
49584W        W41508  22.748  43.184  53.785
49585W        W41509   7.268  27.711  50.609
49586W        W41510  40.714  19.741  51.987
49587W        W41511  36.203  21.719  51.530
49588W        W41512   7.757  38.232  51.078
49589W        W41513  30.724  10.766  52.405
49590W        W41514  45.687  12.759  50.138
49591W        W41515  35.706  31.728  51.970
49592W        W41516  23.212  25.250  53.813
49593W        W41517   5.265  24.255  53.342
49594W        W41518  30.738  29.742  51.980
49595W        W41519  37.707   4.288  49.681
49596W        W41520   6.739  11.750  51.497
49597W        W41521   2.770  33.241  50.129
49598W        W41522   0.251   7.774  51.511
49599W        W41523  31.736  44.687  53.323
49600W        W41524  40.712  43.690  50.586
49601W        W41525  18.749  34.194  51.511
49602W        W41526  33.200  24.731  52.420
49603W        W41527  31.236   8.746  53.807
49604W        W41528  18.727  26.727  51.050
49605W        W41529  35.231   8.778  50.121
49606W        W41530  18.732   4.244  51.524
49607W        W41531  11.248  33.732  50.135
49608W        W41532  33.732  40.223  52.868
49609W        W41533  25.757  42.198  52.898
49610W        W41534  14.775   0.287  52.445
49611W        W41535   4.751  33.737  50.612
49612W        W41536  22.257  17.758  52.434
49613W        W41537  11.251  31.216  53.788
49614W        W41538  46.194   3.280  49.678
49615W        W41539   4.268  47.181  50.600
49616W        W41540  12.240   4.781  50.121
49617W        W41541  29.724  18.261  53.340
49618W        W41542   5.778  25.716  53.774
49619W        W41543  31.205  26.224  50.153
49620W        W41544  35.229  42.198  53.345
49621W        W41545  11.270  10.763  51.038
49622W        W41546  29.748  22.262  53.345
49623W        W41547   8.272  47.690  53.351
49624W        W41548   1.273   4.275  52.885
49625W        W41549  33.204   7.253  52.882
49626W        W41550  21.219  11.258  53.347
49627W        W41551  45.211  35.708  50.127
49628W        W41552  25.231  43.212  52.873
49629W        W41553  44.178  26.245  52.436
49630W        W41554  13.239  31.219  49.709
49631W        W41555  43.703  43.724  53.799
49632W        W41556  30.711  19.742  50.161
49633W        W41557  17.246   0.760  50.604
49634W        W41558   9.283  34.726  51.952
49635W        W41559   3.292  33.728  50.129
49636W        W41560  46.679   2.747  49.664
49637W        W41561  46.206  30.703  52.424
49638W        W41562   3.763  41.207  53.323
49639W        W41563   8.286  12.243  53.341
49640W        W41564  43.707   1.280  52.893
49641W        W41565  26.740  44.195  51.495
49642W        W41566  19.746   9.277  52.899
49643W        W41567  19.767  36.197  51.991
49644W        W41568   2.295  22.717  51.491
49645W        W41569   7.268   3.782  49.692
49646W        W41570  31.699   3.779  50.587
49647W        W41571  11.279  43.688  50.618
49648W        W41572  23.720   1.265  53.817
49649W        W41573  23.719  29.251  50.603
49650W        W41574   2.296  46.218  51.514
49651W        W41575  18.728  19.231  49.678
49652W        W41576  27.236   6.282  49.670
49653W        W41577  24.754  34.729  51.512
49654W        W41578  25.739   5.273  50.150
49655W        W41579  27.206  45.188  51.041
49656W        W41580   6.276  46.180  51.533
49657W        W41581   0.793  18.751  52.419
49658W        W41582  22.733  39.225  51.960
49659W        W41583  18.267  34.242  51.500
49660W        W41584   2.288  39.690  49.685
49661W        W41585  36.208  33.734  52.861
49662W        W41586  18.263   4.763  53.333
49663W        W41587  41.695  11.234  51.048
49664W        W41588   8.781  17.723  51.990
49665W        W41589  21.255  44.686  50.162
49666W        W41590   5.259  35.218  51.975
49667W        W41591  37.716  15.262  51.074
49668W        W41592  30.239   7.274  52.430
49669W        W41593  31.225  11.759  52.864
49670W        W41594  20.730  44.679  52.895
49671W        W41595  14.254  17.259  51.050
49672W        W41596  21.241  37.191  53.343
49673W        W41597  20.233  43.203  49.695
49674W        W41598   7.279  33.732  53.784
49675W        W41599  46.211  45.199  53.813
49676W        W41600  19.747  44.679  52.903
49677W        W41601  32.735  27.752  51.046
49678W        W41602  16.226  27.711  50.136
49679W        W41603   4.762  37.201  53.773
49680W        W41604  30.226  27.254  52.433
49681W        W41605  44.722  22.714  51.533
49682W        W41606   3.286   6.242  53.318
49683W        W41607  22.258  31.209  50.612
49684W        W41608   3.269  32.708  53.344
49685W        W41609  42.192  31.703  51.059
49686W        W41610  12.767  32.703  52.864
49687W        W41611   3.246  18.264  50.149
49688W        W41612  35.227  31.217  49.686
49689W        W41613   0.799  41.687  49.691
49690W        W41614  36.690  35.711  53.777
49691W        W41615  33.223  35.207  52.895
49692W        W41616  43.224  38.709  49.678
49693W        W41617   4.783  47.687  51.493
49694W        W41618  47.193  40.210  53.339
49695W        W41619   3.248  32.735  51.975
49696W        W41620   4.791   9.272  52.440
49697W        W41621  25.229  22.758  53.806
49698W        W41622  16.740  17.241  51.984
49699W        W41623  19.221  47.175  51.509
49700W        W41624  12.766  29.225  52.412
49701W        W41625  17.235  36.690  50.149
49702W        W41626   7.770  27.240  52.422
49703W        W41627   0.760  10.771  50.581
49704W        W41628  39.227   2.762  50.613
49705W        W41629  29.742  10.768  50.611
49706W        W41630  11.246   8.779  52.893
49707W        W41631   1.753   1.757  51.535
49708W        W41632  33.240  19.234  53.812
49709W        W41633  22.240  35.733  52.881
49710W        W41634  40.687  12.735  49.702
49711W        W41635  41.223  47.181  53.319
49712W        W41636   2.271  33.732  49.688
49713W        W41637  40.722  26.216  51.066
49714W        W41638   1.271  30.223  50.133
49715W        W41639  43.707  35.724  50.130
49716W        W41640  35.700  16.760  53.338
49717W        W41641  34.234  16.239  52.866
49718W        W41642  37.190  24.717  49.697
49719W        W41643   0.759   4.283  53.318
49720W        W41644  39.720   6.774  49.692
49721W        W41645  33.736  22.220  50.129
49722W        W41646  39.207  40.227  51.512
49723W        W41647  10.740   9.248  53.333
49724W        W41648  41.718   0.765  49.679
49725W        W41649  34.726   8.276  52.439
49726W        W41650  36.191   8.272  53.320
49727W        W41651  39.203  35.715  50.143
49728W        W41652  28.733  15.269  51.535
49729W        W41653  22.726  27.206  49.695
49730W        W41654  29.232  30.724  50.594
49731W        W41655   7.740   3.771  52.865
49732W        W41656  36.710  30.710  52.875
49733W        W41657   0.292  23.717  53.332
49734W        W41658  28.218  31.745  50.145
49735W        W41659   3.257   1.273  52.441
49736W        W41660  47.702  36.734  53.350
49737W        W41661  20.223  29.219  51.516
49738W        W41662  33.197  40.689  51.515
49739W        W41663  26.243  15.736  49.667
49740W        W41664  45.723  13.254  51.963
49741W        W41665  21.758  25.719  51.948
49742W        W41666  18.239  48.196  52.890
49743W        W41667  48.173  29.736  51.528
49744W        W41668  34.696  21.730  51.529
49745W        W41669   3.281  18.240  52.443
49746W        W41670  29.239  17.769  49.676
49747W        W41671  30.715   6.775  50.577
49748W        W41672   3.250   1.767  53.349
49749W        W41673  10.249  33.740  53.796
49750W        W41674  21.255  45.687  51.039
49751W        W41675  38.730   9.245  51.984
49752W        W41676  18.264  19.737  52.426
49753W        W41677  29.707  30.735  52.425
49754W        W41678   8.764  39.213  50.127
49755W        W41679  30.720   5.284  49.668
49756W        W41680  15.247  39.730  50.584
49757W        W41681  20.242  24.231  52.889
49758W        W41682   2.281  26.747  50.581
49759W        W41683  19.720  30.248  49.690
49760W        W41684  29.228   5.249  51.505
49761W        W41685  14.734  19.220  49.668
49762W        W41686  37.690  23.712  51.042
49763W        W41687  25.229  36.705  52.414
49764W        W41688  28.241  24.739  53.353
49765W        W41689  23.228  37.214  53.341
49766W        W41690   7.760  33.212  53.791
49767W        W41691  20.239  44.217  51.516
49768W        W41692  23.718   7.242  49.703
49769W        W41693  22.762   1.269  51.970
49770W        W41694  11.260   9.756  52.433
49771W        W41695  36.223  34.230  52.879
49772W        W41696  24.716  39.701  52.438
49773W        W41697  32.735  41.704  53.815
49774W        W41698  29.723  36.718  51.042
49775W        W41699  33.233   1.772  51.508
49776W        W41700   7.771  43.205  51.070
49777W        W41701   6.762  12.733  50.586
49778W        W41702  38.717  35.698  51.074
49779W        W41703   3.790  35.202  52.414
49780W        W41704  10.241  48.182  52.865
49781W        W41705  43.699  39.685  51.055
49782W        W41706  26.223  37.702  50.132
49783W        W41707  22.239  37.216  51.987
49784W        W41708   1.796  12.269  53.784
49785W        W41709  46.692  37.727  51.961
49786W        W41710  39.192  18.226  51.961
49787W        W41711  29.720   6.253  50.604
49788W        W41712  40.196  15.273  52.879
49789W        W41713  20.245   0.773  52.420
49790W        W41714  33.732  18.756  49.666
49791W        W41715  32.732  36.239  50.142
49792W        W41716  46.209  12.766  51.512
49793W        W41717  33.236  14.230  52.864
49794W        W41718  18.737  15.762  52.412
49795W        W41719  39.208   4.246  52.440
49796W        W41720   1.770   1.248  52.860
49797W        W41721  16.227  13.736  49.691
49798W        W41722  45.188  40.728  52.877
49799W        W41723  35.205   8.244  52.411
49800W        W41724  17.259  14.227  52.890
49801W        W41725  23.226  10.260  51.041
49802W        W41726  31.210  29.730  51.066
49803W        W41727  43.723   8.238  50.584
49804W        W41728  19.754  45.689  49.691
49805W        W41729  35.724  20.266  51.513
49806W        W41730  30.730  44.187  51.044
49807W        W41731  29.226   6.250  52.882
49808W        W41732  19.224  26.221  49.669
49809W        W41733  37.736  46.693  52.861
49810W        W41734  39.720   3.769  51.954
49811W        W41735  12.764  29.247  50.146
49812W        W41736  20.222  28.744  50.580
49813W        W41737  41.187  14.743  50.162
49814W        W41738  15.771  31.203  53.792
49815W        W41739  27.752  13.772  53.338
49816W        W41740  23.226  37.708  51.949
49817W        W41741  18.744  34.722  51.078
49818W        W41742   2.266  25.234  53.330
49819W        W41743  18.764   5.254  50.129
49820W        W41744  30.236  46.709  53.356
49821W        W41745  10.255  39.708  51.967
49822W        W41746  36.708   7.242  51.068
49823W        W41747  43.209  23.257  50.589
49824W        W41748  29.713  41.200  51.520
49825W        W41749  17.755  38.223  49.673
49826W        W41750  45.689  19.735  51.508
49827W        W41751  38.221  34.715  52.443
49828W        W41752  43.723  44.198  50.606
49829W        W41753  40.691  45.683  50.145
49830W        W41754  34.712   8.238  51.071
49831W        W41755  45.700  33.708  52.412
49832W        W41756  48.177   5.275  51.511
49833W        W41757  36.728  37.228  51.964
49834W        W41758  22.717   2.257  53.340
49835W        W41759  19.765   8.277  51.077
49836W        W41760   5.784  46.210  49.680
49837W        W41761  45.204  23.239  52.868
49838W        W41762  48.214  16.272  52.411
49839W        W41763  34.201  45.718  51.077
49840W        W41764  34.737  43.687  51.988
49841W        W41765  28.208  29.739  49.703
49842W        W41766  41.211  33.227  51.525
49843W        W41767  43.722  44.725  52.865
49844W        W41768  12.242  34.726  52.429
49845W        W41769  45.692  37.219  53.784
49846W        W41770  38.687  27.745  52.892
49847W        W41771   5.270  47.712  52.434
49848W        W41772  39.704  24.734  49.672
49849W        W41773  31.715  28.230  53.348
49850W        W41774  26.219  14.237  49.684
49851W        W41775  38.715  42.727  53.803
49852W        W41776  48.201  41.693  49.696
49853W        W41777  30.236   1.787  53.340
49854W        W41778  13.260  40.700  49.702
49855W        W41779  21.740  38.215  51.067
49856W        W41780  39.723  46.181  51.064
49857W        W41781  39.207  18.230  53.333
49858W        W41782  33.234  28.205  51.971
49859W        W41783   5.286  12.274  51.502
49860W        W41784   5.282   1.296  51.049
49861W        W41785  38.731   7.774  51.986
49862W        W41786  38.207  46.187  52.893
49863W        W41787  11.735  34.205  51.954
49864W        W41788  21.743  30.205  51.515
49865W        W41789  39.705  47.711  49.670
49866W        W41790  46.694  46.199  53.793
49867W        W41791  13.759  44.725  53.351
49868W        W41792  48.174   8.240  49.688
49869W        W41793  17.249  39.691  52.892
49870W        W41794  45.724  22.754  52.887
49871W        W41795  38.694  47.178  52.418
49872W        W41796  21.218   7.278  49.668
49873W        W41797  24.251  46.706  49.681
49874W        W41798  12.270  28.707  53.317
49875W        W41799  44.721  36.202  52.432
49876W        W41800  17.764  16.763  52.894
49877W        W41801  38.216   5.254  51.956
49878W        W41802   7.771  23.235  52.899
49879W        W41803  34.242   9.276  49.688
49880W        W41804   7.280  29.716  50.586
49881W        W41805  31.734  34.720  51.957
49882W        W41806  26.742   4.752  51.533
49883W        W41807   3.255  23.221  51.976
49884W        W41808  27.741  16.729  52.414
49885W        W41809  29.211  23.254  52.889
49886W        W41810  48.192  34.693  51.515
49887W        W41811   4.743  48.176  51.064
49888W        W41812  22.760  20.737  50.130
49889W        W41813  26.242  24.246  53.361
49890W        W41814  25.719   8.748  51.963
49891W        W41815   5.251  31.227  52.886
49892W        W41816  45.687  14.767  51.497
49893W        W41817  32.730  30.233  51.956
49894W        W41818  29.247   7.281  53.361
49895W        W41819   2.770   6.752  52.439
49896W        W41820  15.249  38.231  53.788
49897W        W41821  44.216   2.294  52.428
49898W        W41822   8.246  29.208  49.694
49899W        W41823  19.227  34.738  51.534
49900W        W41824  32.220  28.251  50.621
49901W        W41825   3.256  13.241  50.586
49902W        W41826  48.216  15.250  51.501
49903W        W41827   4.744   1.762  52.429
49904W        W41828   6.255  35.738  53.352
49905W        W41829  23.223  39.235  52.861
49906W        W41830  48.171  30.737  52.447
49907W        W41831  33.699  11.764  50.157
49908W        W41832  34.217  39.695  52.428
49909W        W41833  34.221  43.199  52.902
49910W        W41834  18.232   0.768  53.777
49911W        W41835  47.711  23.220  53.347
49912W        W41836  38.222  15.764  51.074
49913W        W41837   2.290  14.267  50.617
49914W        W41838  31.203  27.217  50.150
49915W        W41839  44.723   5.244  52.896
49916W        W41840  10.252   2.261  51.519
49917W        W41841  32.746   3.248  50.599
49918W        W41842  40.203   2.259  50.598
49919W        W41843  10.246  29.215  53.331
49920W        W41844  16.263   0.278  52.446
49921W        W41845  33.743  28.243  52.433
49922W        W41846   9.247  33.705  51.056
49923W        W41847  26.707  36.695  52.878
49924W        W41848   4.783   5.760  52.410
49925W        W41849  11.751  14.268  51.067
49926W        W41850  33.219  36.705  52.896
49927W        W41851  16.251   8.740  53.785
49928W        W41852  22.239   2.278  52.418
49929W        W41853  17.263  44.720  49.680
49930W        W41854  14.236  28.712  52.434
49931W        W41855  25.719  18.720  51.970
49932W        W41856   6.284   3.747  51.517
49933W        W41857  38.222  18.237  52.425
49934W        W41858  35.236  24.213  50.162
49935W        W41859  23.733   7.244  53.812
49936W        W41860  11.253  36.719  50.602
49937W        W41861  15.736  32.204  51.039
49938W        W41862  19.261  15.228  50.128
49939W        W41863  36.700   8.242  52.902
49940W        W41864  34.737  15.256  50.579
49941W        W41865  12.773  11.736  51.506
49942W        W41866   7.744  43.186  50.621
49943W        W41867  12.756  35.732  53.342
49944W        W41868  45.207   2.748  53.342
49945W        W41869  44.687  24.252  50.150
49946W        W41870   2.261   1.276  53.337
49947W        W41871  25.756  30.206  50.129
49948W        W41872  23.256   1.784  51.961
49949W        W41873  34.239  39.729  49.682
49950W        W41874  29.222  21.738  50.615
49951W        W41875  43.696  20.740  52.882
49952W        W41876  32.714  46.178  52.871
49953W        W41877  44.221  41.206  52.417
49954W        W41878   9.248   5.772  53.343
49955W        W41879   8.776  25.736  51.059
49956W        W41880  12.730  29.221  53.326
49957W        W41881  18.749  40.714  50.588
49958W        W41882  27.737  13.751  52.438
49959W        W41883  24.225  25.253  50.138
49960W        W41884  13.262  35.239  51.055
49961W        W41885   3.283  29.208  53.789
49962W        W41886  41.215  18.230  51.490
49963W        W41887  18.723  16.731  50.595
49964W        W41888  24.736   8.265  53.780
49965W        W41889   7.749   8.281  53.773
49966W        W41890  21.232  41.199  52.868
49967W        W41891  17.244  38.720  50.584
49968W        W41892  27.248  20.237  51.506
49969W        W41893  35.740  25.755  49.693
49970W        W41894  11.245  19.243  51.041
49971W        W41895   0.793  43.727  51.517
49972W        W41896  36.217  41.229  53.812
49973W        W41897  10.239  36.701  53.786
49974W        W41898  46.700  33.204  50.622
49975W        W41899   2.757   7.770  53.351
49976W        W41900  19.742  42.716  52.901
49977W        W41901   9.766  41.690  51.959
49978W        W41902  28.739  32.228  51.952
49979W        W41903  24.754  11.249  49.696
49980W        W41904   0.292  40.696  50.129
49981W        W41905  46.199  13.746  53.352
49982W        W41906  35.196  40.212  51.519
49983W        W41907   3.763  24.231  51.522
49984W        W41908  44.206  16.233  50.139
49985W        W41909  46.700  12.763  53.327
49986W        W41910  23.724  26.239  52.410
49987W        W41911   0.755  31.221  51.508
49988W        W41912  14.764   9.241  53.323
49989W        W41913   2.283   1.252  51.075
49990W        W41914  18.227  14.240  49.696
49991W        W41915  16.244  20.263  50.581
49992W        W41916  27.234  35.724  52.404
49993W        W41917  21.250  38.232  50.587
49994W        W41918  31.248  33.742  52.430
49995W        W41919   5.268  40.688  50.582
49996W        W41920  13.776  36.207  51.062
49997W        W41921  47.683   9.251  51.053
49998W        W41922   9.738  40.708  51.040
49999W        W41923  45.720  18.769  49.685
50000W        W41924  24.238  15.258  53.354
50001W        W41925  39.722  13.750  53.328
50002W        W41926  12.278  29.224  53.788
50003W        W41927  13.265  39.219  52.414
50004W        W41928  36.708  16.731  50.596
50005W        W41929  46.187   3.288  52.431
50006W        W41930  30.735  47.705  53.331
50007W        W41931  23.733  34.724  49.682
50008W        W41932  31.709  11.277  53.349
50009W        W41933  25.742  37.206  53.337
50010W        W41934  38.213  47.696  51.990
50011W        W41935   2.746  38.711  51.052
50012W        W41936  36.210  28.747  53.782
50013W        W41937  34.726  32.228  49.666
50014W        W41938  43.208  32.210  52.869
50015W        W41939  22.218  44.212  50.153
50016W        W41940  12.731  12.737  51.045
50017W        W41941   3.762   6.263  50.601
50018W        W41942   2.765  11.242  51.991
50019W        W41943  27.229  29.210  52.877
50020W        W41944  45.180  20.259  51.497
50021W        W41945  37.203  32.224  52.428
50022W        W41946  42.716  18.749  50.589
50023W        W41947  46.174   2.761  52.889
50024W        W41948   0.275  30.748  51.534
50025W        W41949  26.243  36.707  52.895
50026W        W41950  42.198  40.719  53.323
50027W        W41951  36.703  28.705  53.799
50028W        W41952  23.242  41.230  53.347
50029W        W41953   8.240  17.763  51.951
50030W        W41954  24.742  42.702  52.862
50031W        W41955  36.711   8.268  51.528
50032W        W41956  37.235  43.227  52.434
50033W        W41957  26.254   6.779  50.157
50034W        W41958  46.179  39.234  52.880
50035W        W41959  22.226  25.742  51.971
50036W        W41960  30.245   0.295  53.320
50037W        W41961  37.205   2.758  51.495
50038W        W41962  25.244  13.228  51.054
50039W        W41963   6.281   3.755  50.140
50040W        W41964  35.738  48.205  52.884
50041W        W41965   2.295   9.237  51.039
50042W        W41966   7.248   3.759  51.496
50043W        W41967  19.247   6.780  51.951
50044W        W41968  30.243   9.264  52.875
50045W        W41969  30.240   0.761  52.415
50046W        W41970  22.721   9.274  53.774
50047W        W41971  38.736  21.738  50.146
50048W        W41972  17.223  42.212  50.609
50049W        W41973  16.231  46.700  50.585
50050W        W41974  27.252   3.286  51.979
50051W        W41975  42.699   1.278  52.415
50052W        W41976  14.743  12.266  49.691
50053W        W41977  38.702  27.207  51.988
50054W        W41978   1.251  35.201  53.324
50055W        W41979  26.735  35.708  51.075
50056W        W41980  32.708  35.218  50.158
50057W        W41981  33.715   0.792  52.870
50058W        W41982   1.773   3.767  49.672
50059W        W41983  29.743  30.739  51.512
50060W        W41984   6.287  40.189  53.344
50061W        W41985  14.760   4.781  51.989
50062W        W41986  41.209  29.235  52.412
50063W        W41987  18.233  11.232  51.957
50064W        W41988  33.703  12.764  53.815
50065W        W41989  18.728  13.730  53.774
50066W        W41990   1.792  25.741  51.071
50067W        W41991   7.274  47.710  53.348
50068W        W41992  41.712   1.787  51.034
50069W        W41993  23.243  22.739  52.443
50070W        W41994  42.683  44.699  50.615
50071W        W41995  46.192  31.217  52.865
50072W        W41996  32.224  44.207  52.444
50073W        W41997  24.224  31.716  51.039
50074W        W41998  14.253   9.736  53.341
50075W        W41999   2.778  20.764  53.781
50076W        W42000  25.750  47.695  53.812
50077W        W42001  37.191  31.702  52.429
50078W        W42002   0.272  10.752  50.150
50079W        W42003  37.696  10.780  52.886
50080W        W42004  35.702   7.274  49.672
50081W        W42005   7.281  17.233  52.877
50082W        W42006  28.205  41.195  52.418
50083W        W42007   4.292  33.710  53.783
50084W        W42008  37.711  25.217  50.160
50085W        W42009  24.716  14.271  51.514
50086W        W42010  44.687  42.698  52.408
50087W        W42011  18.736   8.740  52.884
50088W        W42012   8.781  44.216  51.064
50089W        W42013  32.712  42.728  51.514
50090W        W42014   7.254  36.209  52.448
50091W        W42015  44.719  14.730  51.497
50092W        W42016  13.748  14.746  52.430
50093W        W42017  19.752  43.180  50.597
50094W        W42018  45.687  30.746  52.869
50095W        W42019  15.745  44.693  53.785
50096W        W42020  21.756  18.269  51.526
50097W        W42021  14.761  27.238  50.587
50098W        W42022  37.234  29.208  51.048
50099W        W42023  16.723  41.220  53.324
50100W        W42024  43.184   3.780  52.433
50101W        W42025  29.236   1.773  51.491
50102W        W42026  47.717  11.243  53.797
50103W        W42027  21.763  26.718  49.707
50104W        W42028  20.726  21.747  51.520
50105W        W42029  29.702  30.228  51.521
50106W        W42030  27.729  42.199  50.143
50107W        W42031  23.742  17.242  51.068
50108W        W42032   7.279  14.250  53.790
50109W        W42033  17.727   7.258  51.530
50110W        W42034  12.240  48.176  52.866
50111W        W42035  43.680   9.783  53.786
50112W        W42036  28.232   0.791  52.417
50113W        W42037  37.215  38.232  53.814
50114W        W42038  11.735  34.732  49.670
50115W        W42039  44.706  47.701  51.494
50116W        W42040  16.745  15.755  50.622
50117W        W42041  22.714  10.268  50.579
50118W        W42042  37.189   4.790  51.041
50119W        W42043  27.227  47.705  52.882
50120W        W42044  46.217  24.753  51.959
50121W        W42045   2.247   6.285  52.869
50122W        W42046  36.228  24.757  53.322
50123W        W42047  27.743  21.733  52.888
50124W        W42048  23.222  34.211  49.708
50125W        W42049  22.720  30.201  50.588
50126W        W42050  48.177  38.206  49.665
50127W        W42051   1.294   6.280  52.425
50128W        W42052  47.711  12.253  53.341
50129W        W42053  12.240  21.754  51.072
50130W        W42054  15.257  47.714  49.703
50131W        W42055   0.755   9.741  53.324
50132W        W42056  28.229   4.253  51.492
50133W        W42057  15.764  21.222  53.341
50134W        W42058  23.747  34.234  52.432
50135W        W42059  15.227  13.754  51.499
50136W        W42060   6.283  17.726  53.341
50137W        W42061  41.716  38.697  51.987
50138W        W42062  38.189  30.710  53.782
50139W        W42063   7.751  45.223  49.690
50140W        W42064  13.746  28.232  53.345
50141W        W42065  33.225  11.238  49.696
50142W        W42066  23.727  24.752  51.530
50143W        W42067  19.752  28.228  51.529
50144W        W42068  20.250  28.725  52.438
50145W        W42069  16.723  34.731  49.689
50146W        W42070   2.779  33.198  53.353
50147W        W42071  47.203  48.186  49.672
50148W        W42072  35.733  26.741  50.123
50149W        W42073  13.765  10.768  53.319
50150W        W42074  30.740  38.228  50.125
50151W        W42075  16.269  14.228  51.059
50152W        W42076  19.253   2.770  52.409
50153W        W42077  16.741  28.709  51.038
50154W        W42078  30.730  36.232  52.895
50155W        W42079  40.701  17.223  51.052
50156W        W42080   4.761   0.252  51.518
50157W        W42081  48.193   7.243  49.675
50158W        W42082  24.239  38.193  53.776
50159W        W42083  37.199  29.225  52.427
50160W        W42084   9.739   8.778  52.880
50161W        W42085  38.724   0.777  52.439
50162W        W42086  37.713  16.725  49.684
50163W        W42087  23.220  28.751  50.150
50164W        W42088   9.738   4.265  52.412
50165W        W42089  25.256  45.180  52.415
50166W        W42090   1.258  36.730  50.603
50167W        W42091  34.226   4.783  53.352
50168W        W42092  28.235  14.230  50.129
50169W        W42093  27.747   0.788  52.407
50170W        W42094  11.239  20.724  53.787
50171W        W42095  30.738  29.722  52.435
50172W        W42096  18.255  21.241  50.159
50173W        W42097  42.709  13.277  49.689
50174W        W42098  38.704   0.787  53.358
50175W        W42099  22.745   5.754  51.494
50176W        W42100  43.213   3.286  49.666
50177W        W42101  44.719  11.264  51.980
50178W        W42102  14.265  33.730  51.508
50179W        W42103  10.245  29.228  52.863
50180W        W42104   2.264  29.220  53.780
50181W        W42105  33.702  30.733  51.052
50182W        W42106  38.718   3.250  53.317
50183W        W42107   8.756  23.215  50.586
50184W        W42108  35.218  29.738  53.815
50185W        W42109  22.247  38.725  50.595
50186W        W42110  34.225  18.241  51.982
50187W        W42111   8.771  48.209  53.334
50188W        W42112  36.211  23.726  51.045
50189W        W42113   0.789   2.754  50.145
50190W        W42114   5.786  15.735  50.137
50191W        W42115  16.761  13.232  53.812
50192W        W42116  45.685  27.241  50.149
50193W        W42117   5.258  38.195  51.061
50194W        W42118  45.206  19.719  50.616
50195W        W42119   6.276   5.759  52.876
50196W        W42120  23.735  40.709  51.521
50197W        W42121  16.748  48.210  51.500
50198W        W42122  18.230  10.748  51.979
50199W        W42123  38.189  17.223  50.604
50200W        W42124   3.283  20.237  51.951
50201W        W42125  41.729  47.209  51.495
50202W        W42126  45.201  27.725  53.344
50203W        W42127  47.215  43.191  52.897
50204W        W42128  22.745   3.265  52.880
50205W        W42129  12.738   2.788  52.885
50206W        W42130  25.227  42.709  52.425
50207W        W42131  46.717  20.748  50.602
50208W        W42132  12.244  27.753  51.971
50209W        W42133  39.707  19.722  52.862
50210W        W42134  23.218  13.736  53.778
50211W        W42135  14.730  10.245  53.332
50212W        W42136  33.720  34.721  52.405
50213W        W42137  46.211  22.724  52.862
50214W        W42138  45.223  35.221  53.354
50215W        W42139  16.762   9.759  52.875
50216W        W42140   8.271   0.261  50.605
50217W        W42141  24.713  44.700  53.338
50218W        W42142  36.714  35.219  52.878
50219W        W42143  32.228  29.216  53.811
50220W        W42144  17.733  25.258  51.947
50221W        W42145   7.775   2.794  52.430
50222W        W42146  18.257  20.718  50.594
50223W        W42147  26.225  14.257  52.445
50224W        W42148   0.765  33.702  51.045
50225W        W42149   6.268  45.217  51.047
50226W        W42150  37.713  33.707  51.972
50227W        W42151  34.698  38.190  51.051
50228W        W42152  23.252  38.232  52.436
50229W        W42153   4.270  24.754  51.962
50230W        W42154  20.755   1.287  50.609
50231W        W42155  45.681   1.285  51.971
50232W        W42156  37.713  10.263  50.159
50233W        W42157  29.732   1.283  52.873
50234W        W42158  37.197  27.233  50.611
50235W        W42159   4.784  36.698  50.590
50236W        W42160  39.704  33.223  51.978
50237W        W42161  41.216   8.746  51.978
50238W        W42162   7.281  46.211  52.440
50239W        W42163  45.188  41.224  51.526
50240W        W42164  12.249  44.193  50.128
50241W        W42165  17.738   0.760  51.947
50242W        W42166  21.762  21.750  49.703
50243W        W42167  46.714  46.682  52.861
50244W        W42168  19.247  33.203  52.899
50245W        W42169  40.204  44.197  52.411
50246W        W42170  40.699  38.223  52.866
50247W        W42171  36.203  35.692  51.070
50248W        W42172  32.206   2.262  50.598
50249W        W42173  32.231  25.712  52.894
50250W        W42174  30.249  21.244  51.079
50251W        W42175  40.216  16.751  51.534
50252W        W42176  42.224  23.257  53.325
50253W        W42177  25.739  38.711  52.425
50254W        W42178  15.763   8.770  52.879
50255W        W42179   5.288   2.769  50.577
50256W        W42180  30.725   0.782  49.695
50257W        W42181  27.743  27.235  51.067
50258W        W42182   2.774  33.196  51.507
50259W        W42183  25.756  13.252  49.674
50260W        W42184  11.745  35.211  51.970
50261W        W42185  41.195  21.248  50.600
50262W        W42186  37.232  35.230  51.511
50263W        W42187  20.723   1.755  53.319
50264W        W42188  36.229  23.227  50.599
50265W        W42189   4.761  12.754  51.530
50266W        W42190   1.761  27.207  53.325
50267W        W42191  22.254  16.243  53.794
50268W        W42192   3.265   1.278  52.902
50269W        W42193  34.707  32.713  51.077
50270W        W42194  40.684  30.208  53.339
50271W        W42195  19.255  27.251  51.515
50272W        W42196  47.186  12.247  53.779
50273W        W42197  11.732  44.699  53.773
50274W        W42198   6.241  10.754  51.970
50275W        W42199   0.776  26.250  51.066
50276W        W42200  24.244  10.273  50.149
50277W        W42201  10.240   8.252  50.611
50278W        W42202  13.739  19.267  53.323
50279W        W42203  37.737  11.280  51.519
50280W        W42204  34.729  42.220  49.704
50281W        W42205  12.730  17.257  51.061
50282W        W42206  30.744  25.219  52.406
50283W        W42207   3.757  11.257  51.986
50284W        W42208  26.240  14.771  53.323
50285W        W42209  44.694  22.261  52.891
50286W        W42210   7.762  29.719  52.446
50287W        W42211  34.712   5.780  51.058
50288W        W42212   2.762  42.189  51.967
50289W        W42213  40.713   9.284  52.878
50290W        W42214  41.210  25.710  53.807
50291W        W42215   0.761  22.233  52.432
50292W        W42216   8.766  13.236  51.492
50293W        W42217  35.732   1.264  51.070
50294W        W42218  22.744  39.729  50.133
50295W        W42219  47.215  26.248  52.418
50296W        W42220  16.762  43.705  53.353
50297W        W42221  18.254  41.703  51.490
50298W        W42222   2.277  27.248  51.509
50299W        W42223  48.214   4.243  49.695
50300W        W42224  12.778  25.756  50.144
50301W        W42225  44.680  11.279  51.040
50302W        W42226  44.226  43.714  50.593
50303W        W42227  38.706  36.698  52.873
50304W        W42228  38.700   0.765  53.780
50305W        W42229  42.683  29.726  51.971
50306W        W42230  30.721  39.686  51.058
50307W        W42231  12.238  24.259  50.613
50308W        W42232   1.754  23.740  52.433
50309W        W42233  33.220  25.229  50.609
50310W        W42234   6.781  38.707  50.125
50311W        W42235  38.691  12.237  50.152
50312W        W42236  42.210   0.778  50.619
50313W        W42237  38.715   7.761  49.689
50314W        W42238  33.727  23.751  52.411
50315W        W42239  23.748  20.238  51.524
50316W        W42240  21.719  12.757  53.349
50317W        W42241   5.271  41.729  50.148
50318W        W42242  45.686  15.256  53.317
50319W        W42243   6.283  30.742  51.508
50320W        W42244   2.780  13.228  52.904
50321W        W42245  27.241  20.248  53.361
50322W        W42246  26.736  17.736  52.900
50323W        W42247  27.234  15.748  50.131
50324W        W42248  10.241  38.726  51.505
50325W        W42249  45.682  25.235  49.710
50326W        W42250  34.709  33.711  53.803
50327W        W42251  30.717  24.733  53.333
50328W        W42252   4.285  21.740  53.318
50329W        W42253  26.230  19.720  53.353
50330W        W42254   6.750  36.739  52.870
50331W        W42255  17.243   2.257  50.157
50332W        W42256  21.722  40.719  50.605
50333W        W42257  14.260   6.253  53.360
50334W        W42258  25.254   1.288  52.904
50335W        W42259   5.288   7.264  52.888
50336W        W42260  14.737  11.753  51.980
50337W        W42261  32.227   9.239  52.444
50338W        W42262  33.728  27.252  52.439
50339W        W42263  39.687  36.708  51.044
50340W        W42264  35.235  15.236  50.610
50341W        W42265  16.231  37.695  51.963
50342W        W42266  30.734  12.767  53.810
50343W        W42267  37.730  26.755  52.868
50344W        W42268  38.702  43.686  52.875
50345W        W42269  14.776  37.734  49.668
50346W        W42270  23.712   3.249  51.519
50347W        W42271  11.733  46.682  53.330
50348W        W42272  44.726  25.740  53.804
50349W        W42273   4.271   8.757  50.584
50350W        W42274  21.726  18.257  52.428
50351W        W42275   4.748  34.231  51.511
50352W        W42276  11.240  28.752  50.133
50353W        W42277  25.709  45.707  53.336
50354W        W42278  46.191  18.224  51.981
50355W        W42279  30.226  27.722  51.072
50356W        W42280   3.785  41.206  52.439
50357W        W42281  18.725  36.220  49.706
50358W        W42282  33.241  16.267  50.140
50359W        W42283  13.275  33.739  51.966
50360W        W42284  12.272   9.773  50.123
50361W        W42285  32.737  43.704  51.506
50362W        W42286  32.710  40.204  50.598
50363W        W42287  46.710  48.190  53.351
50364W        W42288  38.204   6.751  53.361
50365W        W42289  15.766   8.754  52.447
50366W        W42290   7.248   2.757  53.796
50367W        W42291  42.698  37.712  52.445
50368W        W42292  34.206  34.731  53.777
50369W        W42293   5.266  18.241  52.895
50370W        W42294  24.233  42.219  52.445
50371W        W42295  23.759  45.704  49.699
50372W        W42296  47.222  11.267  51.066
50373W        W42297   5.756  27.241  52.438
50374W        W42298  17.730   8.261  52.899
50375W        W42299  14.238  30.233  53.779
50376W        W42300  12.237  38.704  50.126
50377W        W42301  42.704  32.723  50.601
50378W        W42302  17.230  11.232  51.974
50379W        W42303   3.269  34.215  51.045
50380W        W42304   2.769  44.179  50.139
50381W        W42305  42.215  41.731  50.600
50382W        W42306  25.214  48.187  52.867
50383W        W42307   8.755   1.278  52.882
50384W        W42308  17.247  33.726  51.949
50385W        W42309  48.184  22.721  50.126
50386W        W42310  19.726  25.248  51.978
50387W        W42311  22.215  46.179  50.124
50388W        W42312   7.775   7.742  53.356
50389W        W42313  20.233  35.716  50.166
50390W        W42314  33.210  13.750  50.127
50391W        W42315   8.768  27.717  52.419
50392W        W42316  36.216  26.730  49.704
50393W        W42317  32.724  47.180  52.408
50394W        W42318   8.264   2.766  51.045
50395W        W42319   0.253  27.245  49.682
50396W        W42320  12.231  14.753  52.884
50397W        W42321  41.694   9.741  53.797
50398W        W42322  26.255  21.729  53.348
50399W        W42323  24.223  21.252  51.045
50400W        W42324   8.261  31.246  53.339
50401W        W42325  32.709  38.233  50.613
50402W        W42326  45.678  31.206  51.049
50403W        W42327  17.223  33.699  53.356
50404W        W42328  21.753   1.265  52.434
50405W        W42329  40.690  24.220  52.405
50406W        W42330  34.696  14.244  52.876
50407W        W42331  10.238  42.219  51.948
50408W        W42332  33.216  46.210  50.127
50409W        W42333  36.213   9.737  49.669
50410W        W42334  13.263  29.212  53.333
50411W        W42335   7.754  47.696  51.041
50412W        W42336  12.264  17.743  49.697
50413W        W42337  11.277  21.222  53.791
50414W        W42338  41.701  16.246  52.404
50415W        W42339   4.758  23.228  49.668
50416W        W42340  20.240  46.219  51.959
50417W        W42341   6.776   3.250  51.972
50418W        W42342  46.691  31.741  53.339
50419W        W42343  30.227  28.743  53.350
50420W        W42344  25.712  13.738  52.416
50421W        W42345  46.216  16.259  50.121
50422W        W42346  12.743  38.716  51.961
50423W        W42347  25.713  16.250  49.702
50424W        W42348  22.230  11.270  53.781
50425W        W42349  17.248  15.242  51.491
50426W        W42350  39.230  37.701  50.153
50427W        W42351  17.252  24.236  52.426
50428W        W42352  37.213  17.732  52.406
50429W        W42353  18.234  45.712  50.585
50430W        W42354   5.771   9.257  52.888
50431W        W42355  12.751   4.780  50.585
50432W        W42356  22.235  16.255  51.965
50433W        W42357  10.235  14.256  52.410
50434W        W42358  46.703   8.773  53.815
50435W        W42359   3.785  28.204  51.979
50436W        W42360  32.737  44.686  49.670
50437W        W42361  41.209  16.255  49.665
50438W        W42362  38.726  21.759  52.889
50439W        W42363  30.209   8.266  53.798
50440W        W42364  17.768  33.737  50.125
50441W        W42365  24.757   6.260  53.335
50442W        W42366  48.218  37.220  53.775
50443W        W42367  17.238  12.238  52.443
50444W        W42368  16.239   9.745  53.360
50445W        W42369   5.268  15.749  51.079
50446W        W42370  25.238   5.281  53.339
50447W        W42371  42.214  11.736  50.585
50448W        W42372  36.732   7.782  51.514
50449W        W42373  46.699  31.207  50.578
50450W        W42374  34.204  31.717  50.608
50451W        W42375  12.248  10.765  49.679
50452W        W42376  24.740  28.232  52.426
50453W        W42377  43.723   6.285  50.145
50454W        W42378  25.726   9.766  53.333
50455W        W42379  40.214   4.745  52.875
50456W        W42380  23.222  23.248  51.529
50457W        W42381  27.723   8.779  51.501
50458W        W42382   7.762  20.264  50.606
50459W        W42383  28.244   1.771  51.533
50460W        W42384  18.250  17.257  49.698
50461W        W42385  41.203  17.758  53.330
50462W        W42386  30.218  48.192  50.589
50463W        W42387  44.718  40.231  50.589
50464W        W42388  37.708  40.699  52.430
50465W        W42389   6.251   8.749  49.704
50466W        W42390  11.243  35.733  49.690
50467W        W42391  46.205   0.784  50.145
50468W        W42392  39.694  28.227  52.434
50469W        W42393  47.678  11.245  52.878
50470W        W42394   0.264  28.735  53.347
50471W        W42395  33.731  47.685  51.978
50472W        W42396  32.210  33.701  51.984
50473W        W42397  19.730  32.734  52.416
50474W        W42398  31.205  33.716  51.990
50475W        W42399   7.249   7.250  52.903
50476W        W42400  32.742  11.764  49.666
50477W        W42401   3.245  45.196  51.952
50478W        W42402  24.211  40.202  50.584
50479W        W42403   8.769  36.226  51.045
50480W        W42404   2.782  36.235  51.533
50481W        W42405  15.269  37.212  52.411
50482W        W42406  19.223  24.216  52.899
50483W        W42407  45.192  25.216  53.316
50484W        W42408   5.277   0.755  51.494
50485W        W42409   3.764  10.234  49.705
50486W        W42410  46.713   8.749  51.492
50487W        W42411  29.227  12.736  51.492
50488W        W42412  31.731   7.247  52.898
50489W        W42413  43.183  42.180  52.874
50490W        W42414  37.238  31.746  50.154
50491W        W42415  29.734  13.277  51.508
50492W        W42416  20.235  26.743  50.160
50493W        W42417  19.722  30.748  50.128
50494W        W42418   6.778   9.760  52.411
50495W        W42419  10.765  22.750  52.407
50496W        W42420  47.691  39.697  51.034
50497W        W42421   9.252  12.755  50.594
50498W        W42422  28.244  21.753  51.523
50499W        W42423  43.218  33.243  50.591
50500W        W42424   8.781  39.720  53.785
50501W        W42425   7.768  39.701  51.070
50502W        W42426  41.722  15.250  52.409
50503W        W42427   0.271  34.211  50.159
50504W        W42428  20.235  18.245  52.424
50505W        W42429  11.764  22.243  51.051
50506W        W42430  25.730  24.753  52.899
50507W        W42431   6.263  35.727  50.593
50508W        W42432  46.189  17.232  51.526
50509W        W42433  16.722  11.754  53.353
50510W        W42434  16.739   1.285  49.702
50511W        W42435   8.283  34.733  51.491
50512W        W42436  30.736  29.714  52.898
50513W        W42437  29.729  34.696  50.160
50514W        W42438  31.225  16.746  51.989
50515W        W42439  19.232  13.239  50.144
50516W        W42440  45.685  29.246  51.065
50517W        W42441  43.189  14.769  51.077
50518W        W42442  12.271  26.724  51.040
50519W        W42443  37.219  11.266  51.035
50520W        W42444  45.681  10.769  52.885
50521W        W42445  41.692  18.262  50.595
50522W        W42446  43.702  31.205  52.411
50523W        W42447  38.689  25.722  53.778
50524W        W42448   2.779  42.202  50.594
50525W        W42449  36.239  37.229  53.784
50526W        W42450   3.258  10.773  49.694
50527W        W42451   7.271  16.738  52.867
50528W        W42452   4.762  32.210  53.782
50529W        W42453   5.762   5.762  53.345
50530W        W42454  18.761  14.761  50.161
50531W        W42455  45.217  24.224  51.965
50532W        W42456  29.207   4.255  51.506
50533W        W42457   5.271  38.216  53.798
50534W        W42458   7.258  45.223  51.502
50535W        W42459   5.749  19.236  51.068
50536W        W42460  40.201  45.703  52.444
50537W        W42461   2.777  32.723  53.801
50538W        W42462   7.769  23.742  51.067
50539W        W42463  20.248  24.237  53.329
50540W        W42464  29.723  12.748  49.698
50541W        W42465  18.720   5.260  52.900
50542W        W42466  35.739  36.701  50.578
50543W        W42467  31.745  20.237  53.350
50544W        W42468   5.745  36.215  51.951
50545W        W42469   9.765   2.289  52.434
50546W        W42470  15.252  16.737  50.151
50547W        W42471  27.213  44.195  53.775
50548W        W42472   3.264  21.743  50.127
50549W        W42473   9.274  47.686  50.146
50550W        W42474  41.220  31.201  53.323
50551W        W42475  30.219  39.192  53.332
50552W        W42476  44.190  41.218  49.706
50553W        W42477  16.761  45.205  49.700
50554W        W42478  45.694  28.742  51.056
50555W        W42479  34.237  39.213  51.043
50556W        W42480  41.196   8.258  51.506
50557W        W42481  34.239   3.261  53.317
50558W        W42482  39.221  21.760  50.131
50559W        W42483  25.745  28.244  51.521
50560W        W42484  39.716  47.679  51.516
50561W        W42485  30.720  22.720  53.783
50562W        W42486  19.244  42.699  51.043
50563W        W42487   2.751   0.288  52.869
50564W        W42488  41.699   2.772  53.783
50565W        W42489   9.252  17.770  50.149
50566W        W42490   0.278  27.741  49.672
50567W        W42491   0.787  24.750  51.988
50568W        W42492  48.185  22.756  52.862
50569W        W42493  24.234  39.725  53.324
50570W        W42494  41.714   0.261  50.577
50571W        W42495  44.709   5.743  53.317
50572W        W42496  38.725   7.270  53.345
50573W        W42497  14.761  34.232  52.864
50574W        W42498  29.226  32.706  53.355
50575W        W42499  35.715   0.273  53.786
50576W        W42500  24.717  12.232  51.037
50577W        W42501  43.183  11.281  51.077
50578W        W42502  37.700  11.758  51.953
50579W        W42503  44.225  35.711  53.774
50580W        W42504  33.228  21.218  50.136
50581W        W42505  41.713   6.256  52.904
50582W        W42506  45.196  41.183  52.432
50583W        W42507  30.206  17.733  52.431
50584W        W42508  30.708  33.223  53.773
50585W        W42509  12.774  46.682  53.797
50586W        W42510   8.750  16.746  49.677
50587W        W42511  31.218  20.735  50.136
50588W        W42512   9.756  37.196  51.056
50589W        W42513  18.239  39.194  53.323
50590W        W42514  31.720  31.715  51.502
50591W        W42515   8.247  24.255  51.951
50592W        W42516  37.726  30.721  51.528
50593W        W42517  24.244  13.760  53.329
50594W        W42518   2.258   4.250  50.583
50595W        W42519  22.759  38.202  53.793
50596W        W42520  43.678  14.262  50.617
50597W        W42521   4.784  15.262  52.407
50598W        W42522  46.184  32.733  50.602
50599W        W42523   2.259  14.772  50.598
50600W        W42524  21.221  17.740  53.357
50601W        W42525  45.678   8.743  53.801
50602W        W42526  20.752  22.756  53.774
50603W        W42527  32.246  33.201  52.896
50604W        W42528  48.178  10.766  49.673
50605W        W42529  18.258  27.716  52.867
50606W        W42530  25.745  29.247  49.698
50607W        W42531  16.731  12.275  52.885
50608W        W42532  44.194   5.745  51.069
50609W        W42533  24.224   3.759  50.589
50610W        W42534  30.748  32.237  52.417
50611W        W42535  12.754  41.704  52.438
50612W        W42536  18.759  13.250  49.704
50613W        W42537   5.258  19.753  50.128
50614W        W42538  39.223  44.686  53.784
50615W        W42539  36.722  34.233  50.580
50616W        W42540  43.727  25.214  53.776
50617W        W42541   7.263  27.735  52.410
50618W        W42542  23.260  14.249  53.320
50619W        W42543   4.754  11.753  49.673
50620W        W42544  45.205  31.199  51.506
50621W        W42545  41.718  43.683  51.987
50622W        W42546   1.256  34.695  51.531
50623W        W42547  31.232   8.752  53.348
50624W        W42548  20.243  15.765  50.588
50625W        W42549  35.723  36.719  53.780
50626W        W42550   0.259  25.251  53.816
50627W        W42551  38.708  34.238  53.815
50628W        W42552  45.695  33.211  51.039
50629W        W42553   0.266  29.210  50.598
50630W        W42554   6.263   1.262  52.894
50631W        W42555  25.742  35.230  51.521
50632W        W42556  11.256  42.226  51.531
50633W        W42557  34.226  44.193  51.992
50634W        W42558  36.728  41.220  49.703
50635W        W42559  22.716  37.201  49.704
50636W        W42560  17.255  21.744  49.667
50637W        W42561  43.685  44.222  53.797
50638W        W42562   2.774   6.285  53.813
50639W        W42563  10.758  20.237  49.708
50640W        W42564   4.743   7.760  52.891
50641W        W42565   9.780  18.762  53.350
50642W        W42566  12.735  22.231  50.589
50643W        W42567  39.221  37.736  51.506
50644W        W42568  10.759  29.747  53.772
50645W        W42569  44.718  15.263  53.337
50646W        W42570  32.202  12.277  51.958
50647W        W42571   1.276   4.745  53.328
50648W        W42572  29.703  35.721  51.952
50649W        W42573  29.749   7.270  50.619
50650W        W42574  14.734  21.724  52.419
50651W        W42575  25.753  24.236  51.991
50652W        W42576   1.296  32.706  51.050
50653W        W42577  38.229  31.216  52.891
50654W        W42578  22.226   4.270  50.156
50655W        W42579  32.203  20.236  53.351
50656W        W42580  25.753  45.681  51.984
50657W        W42581  28.206  46.689  52.426
50658W        W42582  31.200  34.716  53.788
50659W        W42583  28.251   6.275  52.891
50660W        W42584  37.225  29.733  53.783
50661W        W42585  23.719  26.748  52.429
50662W        W42586  12.252  34.731  53.808
50663W        W42587  32.242  27.240  49.683
50664W        W42588  34.701  29.727  51.526
50665W        W42589  44.699  47.203  51.498
50666W        W42590   4.781  44.207  52.436
50667W        W42591  39.709  33.744  52.864
50668W        W42592   7.745  28.215  49.676
50669W        W42593  38.209  20.761  49.700
50670W        W42594   0.261  10.273  50.604
50671W        W42595  40.213  37.215  50.590
50672W        W42596  34.227  46.218  52.418
50673W        W42597  41.219  28.218  50.604
50674W        W42598   8.272  14.774  52.859
50675W        W42599  35.235   7.277  53.316
50676W        W42600  30.212  16.747  52.442
50677W        W42601   5.765  41.221  51.534
50678W        W42602  24.717  19.741  50.124
50679W        W42603  14.247  19.717  50.155
50680W        W42604  45.204  32.709  50.599
50681W        W42605  25.238   5.268  50.606
50682W        W42606  17.762  31.700  51.960
50683W        W42607   3.248   0.254  51.049
50684W        W42608  29.217  19.747  50.579
50685W        W42609  20.743   9.249  52.439
50686W        W42610  44.223  14.229  52.897
50687W        W42611   7.762  22.257  51.954
50688W        W42612  35.232  18.226  51.067
50689W        W42613  20.721  21.760  51.076
50690W        W42614  37.711  22.242  49.700
50691W        W42615  15.232  47.217  52.444
50692W        W42616   3.761  25.216  50.610
50693W        W42617  40.190  21.759  53.806
50694W        W42618  40.687  30.240  51.039
50695W        W42619  48.171  10.739  53.332
50696W        W42620  18.765   0.276  50.608
50697W        W42621  19.730  10.239  50.622
50698W        W42622  29.748  23.759  50.125
50699W        W42623  37.224   4.292  51.055
50700W        W42624   4.249  47.716  51.980
50701W        W42625  35.231  22.214  52.887
50702W        W42626  45.678  26.755  49.675
50703W        W42627  41.722   2.253  51.058
50704W        W42628  26.753  13.775  50.587
50705W        W42629  42.717  22.259  50.126
50706W        W42630  25.710  36.236  53.327
50707W        W42631  12.776  14.726  51.491
50708W        W42632  47.680  24.220  51.509
50709W        W42633  17.760  40.193  51.534
50710W        W42634  29.713  10.273  52.431
50711W        W42635  25.255   7.249  52.410
50712W        W42636   6.246  14.750  53.322
50713W        W42637  34.237   8.775  51.982
50714W        W42638  48.174  31.217  51.037
50715W        W42639  40.701  28.738  52.868
50716W        W42640  17.251  36.197  53.780
50717W        W42641  20.261  39.219  50.619
50718W        W42642  32.243  15.227  52.424
50719W        W42643  33.215  43.203  49.672
50720W        W42644  38.197  31.202  53.800
50721W        W42645  31.739  31.722  51.064
50722W        W42646  33.226  31.200  52.427
50723W        W42647  19.249   7.270  53.790
50724W        W42648  46.686  28.243  52.445
50725W        W42649  46.691  47.201  53.339
50726W        W42650   5.752  15.740  50.609
50727W        W42651  18.742  25.249  52.404
50728W        W42652  25.716  15.227  50.125
50729W        W42653  29.242  35.712  51.985
50730W        W42654  45.205  26.236  50.127
50731W        W42655   9.767  19.731  53.810
50732W        W42656  25.255  25.712  50.135
50733W        W42657  25.717   5.275  51.982
50734W        W42658  20.733  48.205  52.880
50735W        W42659  39.214   9.280  51.059
50736W        W42660   2.756  30.221  53.316
50737W        W42661  11.760  17.731  51.500
50738W        W42662  20.231  17.239  50.151
50739W        W42663   1.281  31.248  51.042
50740W        W42664   3.768  13.244  49.704
50741W        W42665  22.729  44.683  49.681
50742W        W42666  28.749  32.716  51.039
50743W        W42667  36.698  37.220  50.135
50744W        W42668  13.259  32.723  52.868
50745W        W42669  29.714  35.722  50.133
50746W        W42670  43.680  25.226  50.141
50747W        W42671  19.247   3.762  51.055
50748W        W42672  30.699  33.723  49.669
50749W        W42673  38.702   3.783  50.583
50750W        W42674  40.726  40.220  51.988
50751W        W42675  48.191  40.203  53.350
50752W        W42676  46.699   6.268  53.784
50753W        W42677  26.734  27.222  53.319
50754W        W42678  27.233  19.723  53.781
50755W        W42679  21.741  22.243  51.523
50756W        W42680  45.719  25.718  51.074
50757W        W42681  43.724  37.228  52.868
50758W        W42682  36.221  26.222  49.708
50759W        W42683  43.198   9.282  51.953
50760W        W42684  36.230  40.188  53.338
50761W        W42685   4.787  23.718  51.963
50762W        W42686  43.200  46.199  49.697
50763W        W42687  36.234  40.686  52.871
50764W        W42688  36.217  14.228  53.781
50765W        W42689  35.235   6.740  50.136
50766W        W42690  31.740  47.714  52.900
50767W        W42691   7.777  43.682  50.125
50768W        W42692  41.215  42.226  52.408
50769W        W42693   1.750  27.234  51.967
50770W        W42694  15.753  36.722  52.897
50771W        W42695  17.254   5.281  53.351
50772W        W42696  21.225  35.701  49.668
50773W        W42697  27.724  22.225  52.442
50774W        W42698  37.195  37.703  51.957
50775W        W42699  46.190   9.764  51.966
50776W        W42700   5.277  30.703  50.611
50777W        W42701   2.286   9.271  53.319
50778W        W42702  22.244  32.738  51.516
50779W        W42703  10.760  10.269  50.614
50780W        W42704  39.734  21.228  49.668
50781W        W42705  11.271   1.782  50.583
50782W        W42706  44.721  20.264  53.342
50783W        W42707  41.216  14.761  52.888
50784W        W42708   6.288  24.257  53.349
50785W        W42709  44.681  46.191  53.327
50786W        W42710  46.694   2.284  50.590
50787W        W42711  16.225  20.224  49.708
50788W        W42712  41.702  44.710  49.692
50789W        W42713   3.774  22.215  53.339
50790W        W42714  16.240  43.189  50.127
50791W        W42715  34.738   2.287  51.991
50792W        W42716   0.766  46.687  53.350
50793W        W42717  13.277  28.238  50.618
50794W        W42718  33.719  35.701  50.612
50795W        W42719   8.746  10.269  51.969
50796W        W42720  11.744  26.215  51.498
50797W        W42721  15.271   6.787  51.058
50798W        W42722  39.193  48.214  49.692
50799W        W42723  21.221  15.731  52.904
50800W        W42724   0.291   7.737  52.404
50801W        W42725  27.740  13.253  51.068
50802W        W42726   6.256  18.721  53.787
50803W        W42727  27.213  28.235  50.131
50804W        W42728  23.226  34.716  49.684
50805W        W42729  38.234  15.235  50.588
50806W        W42730   4.763  37.698  53.801
50807W        W42731  35.224   1.292  53.793
50808W        W42732  30.216  14.730  53.359
50809W        W42733  35.728  39.233  50.617
50810W        W42734   7.249  11.271  53.346
50811W        W42735  42.715   3.761  53.358
50812W        W42736  16.755  23.713  50.161
50813W        W42737  33.738  37.212  53.333
50814W        W42738  20.721   1.756  52.440
50815W        W42739  39.697  12.235  51.505
50816W        W42740  45.204  31.248  51.036
50817W        W42741  44.212  11.264  52.432
50818W        W42742  24.757  15.263  53.807
50819W        W42743  38.716  35.700  49.688
50820W        W42744  28.711  19.759  51.077
50821W        W42745  26.255  37.691  51.981
50822W        W42746  29.729  20.745  52.431
50823W        W42747  18.247  33.227  51.991
50824W        W42748  37.233  34.233  51.980
50825W        W42749  28.731  11.267  51.491
50826W        W42750  42.704   2.746  51.963
50827W        W42751  39.224  12.267  51.070
50828W        W42752  22.727  42.194  51.518
50829W        W42753  29.710   9.270  53.773
50830W        W42754  13.732  10.268  50.603
50831W        W42755  46.188  10.237  52.890
50832W        W42756  45.196   1.291  50.139
50833W        W42757  28.739  36.231  53.354
50834W        W42758  39.707  40.201  49.701
50835W        W42759  24.229  16.734  52.887
50836W        W42760  20.229  47.216  53.802
50837W        W42761  47.181  28.236  50.131
50838W        W42762  14.750  22.254  50.602
50839W        W42763  33.238  34.203  50.593
50840W        W42764  21.244   3.277  53.796
50841W        W42765   8.242  34.206  52.898
50842W        W42766  25.749  45.215  53.349
50843W        W42767  11.235   3.760  51.050
50844W        W42768  16.238  38.706  50.613
50845W        W42769  45.209  42.726  52.884
50846W        W42770   1.786  17.229  53.339
50847W        W42771   1.297   8.758  50.128
50848W        W42772  17.727  34.208  49.672
50849W        W42773  48.180   9.274  49.678
50850W        W42774  44.701  38.219  53.317
50851W        W42775  11.777  42.201  50.612
50852W        W42776   4.777  41.189  52.883
50853W        W42777   5.289  34.708  53.351
50854W        W42778   3.750   0.267  51.068
50855W        W42779  18.765  39.193  49.668
50856W        W42780  47.700  42.197  52.895
50857W        W42781  28.205  27.231  52.404
50858W        W42782  41.703  44.699  50.133
50859W        W42783   9.778   8.240  50.587
50860W        W42784  31.247   5.752  51.520
50861W        W42785  43.196  10.750  51.977
50862W        W42786  23.758   9.235  51.965
50863W        W42787  46.188  34.223  50.604
50864W        W42788  21.750  35.711  52.862
50865W        W42789  26.716  38.202  51.073
50866W        W42790  21.731  34.710  52.871
50867W        W42791  21.722  12.278  53.774
50868W        W42792  26.750  19.719  52.883
50869W        W42793   3.793   8.767  49.667
50870W        W42794  42.217   3.252  51.520
50871W        W42795  45.222  21.739  50.596
50872W        W42796  16.271  22.240  53.783
50873W        W42797   8.764   8.263  50.141
50874W        W42798  19.232   7.276  51.954
50875W        W42799  10.274   9.738  52.409
50876W        W42800  32.712  42.220  50.589
50877W        W42801   6.254  39.714  52.410
50878W        W42802  42.230  46.707  52.871
50879W        W42803   4.744  17.229  52.408
50880W        W42804  17.253  29.729  50.131
50881W        W42805  13.255  31.728  52.423
50882W        W42806  22.724   8.767  51.071
50883W        W42807   0.791  15.270  50.594
50884W        W42808   0.782  21.747  52.883
50885W        W42809  39.709  29.223  51.523
50886W        W42810   7.263  33.741  52.893
50887W        W42811  42.207   7.763  52.409
50888W        W42812  43.714  39.202  51.048
50889W        W42813  47.206  23.219  51.071
50890W        W42814  16.748  24.750  52.448
50891W        W42815  25.752  23.235  52.421
50892W        W42816  24.220  23.212  50.600
50893W        W42817   4.287   9.760  51.982
50894W        W42818  41.200   4.250  49.677
50895W        W42819  23.214  34.734  53.776
50896W        W42820  38.235   1.273  53.782
50897W        W42821  20.724  37.695  49.708
50898W        W42822  42.723  10.252  50.166
50899W        W42823  29.737  41.705  50.159
50900W        W42824  46.182   7.738  50.155
50901W        W42825  47.200  40.709  51.504
50902W        W42826  11.252  29.724  53.356
50903W        W42827  35.698   2.769  51.984
50904W        W42828  22.715  37.211  51.520
50905W        W42829   0.259  33.703  51.975
50906W        W42830  34.723  45.185  50.150
50907W        W42831  20.249  21.219  51.495
50908W        W42832  39.718  29.726  49.694
50909W        W42833  20.233   5.287  53.810
50910W        W42834  15.271  30.203  50.138
50911W        W42835   6.757   1.797  52.866
50912W        W42836  45.702   2.787  52.436
50913W        W42837  38.709   4.275  49.703
50914W        W42838  24.236  10.745  49.686
50915W        W42839   8.770  40.188  49.695
50916W        W42840  19.232  14.758  52.903
50917W        W42841  13.275  25.732  51.051
50918W        W42842  44.699  38.205  51.990
50919W        W42843   0.791   7.255  49.693
50920W        W42844  27.733  22.724  52.886
50921W        W42845  11.259   4.773  50.143
50922W        W42846  26.250  28.723  52.414
50923W        W42847   8.755  13.258  52.433
50924W        W42848  45.198   4.275  51.075
50925W        W42849  29.716   8.253  52.887
50926W        W42850  40.728  45.192  53.323
50927W        W42851  42.715   9.755  51.512
50928W        W42852  38.691   5.742  50.147
50929W        W42853  17.256  36.230  49.683
50930W        W42854  47.694  33.699  49.693
50931W        W42855  41.189   3.253  51.500
50932W        W42856  36.230  17.249  50.138
50933W        W42857   8.248  10.265  52.869
50934W        W42858  21.763  16.762  49.702
50935W        W42859  44.209  44.692  50.620
50936W        W42860  28.733   6.253  51.500
50937W        W42861  18.767  18.227  49.665
50938W        W42862  18.760  46.189  52.871
50939W        W42863  46.220  25.218  51.068
50940W        W42864  24.225   4.772  50.149
50941W        W42865  38.201   5.770  52.883
50942W        W42866  17.270  13.269  49.695
50943W        W42867  17.265  32.228  53.801
50944W        W42868   8.748  38.722  52.445
50945W        W42869  15.273   3.275  51.966
50946W        W42870  32.218   7.780  50.622
50947W        W42871   2.771  31.718  51.988
50948W        W42872   0.759  15.770  49.709
50949W        W42873  39.224  48.213  50.592
50950W        W42874  20.240   0.283  53.348
50951W        W42875  44.690  23.221  52.874
50952W        W42876   5.291  37.194  50.591
50953W        W42877  38.236  36.225  52.876
50954W        W42878   4.249   9.256  51.037
50955W        W42879  42.706  14.234  53.778
50956W        W42880  27.242   4.754  53.789
50957W        W42881  15.230  13.729  49.689
50958W        W42882  39.213  25.212  53.343
50959W        W42883   2.747  46.676  53.330
50960W        W42884  19.226  47.198  52.439
50961W        W42885  29.735  45.686  49.680
50962W        W42886  11.768  23.222  52.895
50963W        W42887  26.235   4.273  52.446
50964W        W42888  34.211  14.774  50.620
50965W        W42889  35.197  11.775  53.808
50966W        W42890   3.261  11.736  51.973
50967W        W42891  32.731  10.751  51.991
50968W        W42892  11.747  21.236  53.777
50969W        W42893  15.263  28.737  51.492
50970W        W42894  11.746  39.231  51.498
50971W        W42895  21.754   6.756  51.518
50972W        W42896  41.217  13.274  52.878
50973W        W42897  34.231  41.185  50.164
50974W        W42898  37.210   4.790  52.435
50975W        W42899  46.186  17.241  52.409
50976W        W42900  21.258   8.779  51.494
50977W        W42901  32.220  42.683  52.432
50978W        W42902  11.272  28.748  52.879
50979W        W42903  17.250  34.204  51.987
50980W        W42904  25.252  40.688  53.330
50981W        W42905  29.704  11.751  52.433
50982W        W42906  39.688  37.709  50.595
50983W        W42907  18.728  17.729  51.508
50984W        W42908   3.748  10.754  52.883
50985W        W42909  13.256  16.237  52.867
50986W        W42910   5.756  22.721  51.064
50987W        W42911  37.237  33.704  53.802
50988W        W42912   1.763  40.201  52.868
50989W        W42913  47.213   5.743  51.074
50990W        W42914  31.233  43.685  52.407
50991W        W42915  22.238   4.255  50.596
50992W        W42916  25.237   2.285  52.904
50993W        W42917   5.274  34.695  50.159
50994W        W42918  29.728  20.223  51.525
50995W        W42919   7.742  38.687  51.045
50996W        W42920  37.697  43.226  53.794
50997W        W42921  37.203  26.223  51.044
50998W        W42922  32.212  30.739  51.508
50999W        W42923  14.260  43.213  53.803
51000W        W42924  29.234  10.278  52.886
51001W        W42925  44.187  39.708  51.072
51002W        W42926   5.778  20.757  50.603
51003W        W42927  18.721  39.685  52.408
51004W        W42928   1.774  43.693  52.871
51005W        W42929  29.227   4.277  50.589
51006W        W42930  46.222  30.205  50.590
51007W        W42931   8.750  41.685  50.139
51008W        W42932  40.708  18.227  51.067
51009W        W42933  23.230  14.273  49.683
51010W        W42934  24.751   4.770  51.051
51011W        W42935   5.754  15.237  53.793
51012W        W42936  10.243   4.259  52.867
51013W        W42937  31.215  20.225  51.042
51014W        W42938  19.721  41.706  50.607
51015W        W42939   9.762  18.223  53.348
51016W        W42940   3.758  20.231  50.159
51017W        W42941   9.777  26.749  51.989
51018W        W42942  11.237  16.751  53.773
51019W        W42943   2.292  43.200  50.587
51020W        W42944   9.739  11.265  53.808
51021W        W42945  21.228   7.770  52.873
51022W        W42946  37.727  12.735  52.863
51023W        W42947  16.755  19.236  51.981
51024W        W42948  44.700  32.724  52.425
51025W        W42949  28.238  18.723  50.610
51026W        W42950  21.724  30.707  51.499
51027W        W42951   8.264  28.708  50.165
51028W        W42952   9.274  26.712  53.350
51029W        W42953  23.757  15.773  51.989
51030W        W42954  17.766  27.726  53.792
51031W        W42955   6.786  29.216  50.619
51032W        W42956  43.706  32.217  50.162
51033W        W42957   9.257  10.749  50.147
51034W        W42958  10.737  26.736  52.883
51035W        W42959  21.742  30.716  53.345
51036W        W42960  13.763   8.760  52.893
51037W        W42961   2.276  42.190  50.146
51038W        W42962  26.234   6.777  53.809
51039W        W42963  38.195  42.698  51.522
51040W        W42964  40.186  25.709  52.406
51041W        W42965  29.233  44.180  53.351
51042W        W42966  27.236   8.768  51.985
51043W        W42967  35.211  37.237  51.509
51044W        W42968  12.747  34.242  49.675
51045W        W42969  38.217  36.239  50.148
51046W        W42970   6.283  11.742  50.595
51047W        W42971  38.688  25.219  53.812
51048W        W42972  33.733  38.194  50.121
51049W        W42973  22.221  18.765  53.350
51050W        W42974  12.733   9.272  50.125
51051W        W42975  43.203  10.251  50.151
51052W        W42976  28.215  16.760  53.317
51053W        W42977  19.262  23.740  50.126
51054W        W42978  15.769  40.202  53.794
51055W        W42979  48.188  22.231  51.965
51056W        W42980  36.736  35.719  52.443
51057W        W42981  46.197   2.794  51.060
51058W        W42982   5.744  24.236  51.535
51059W        W42983   8.249   7.785  50.607
51060W        W42984   1.764  37.706  50.584
51061W        W42985  29.248  32.240  53.348
51062W        W42986  30.709  18.235  53.356
51063W        W42987  39.235  43.720  52.860
51064W        W42988  32.739  39.693  52.416
51065W        W42989  13.771  16.751  51.951
51066W        W42990  27.730  20.761  51.976
51067W        W42991  17.262  43.213  51.507
51068W        W42992  16.767  14.231  49.708
51069W        W42993  25.249  16.752  51.949
51070W        W42994   4.269  16.725  52.445
51071W        W42995  35.238  34.707  53.775
51072W        W42996  36.693  19.229  49.704
51073W        W42997  45.211  23.734  51.490
51074W        W42998  15.227  30.209  49.690
51075W        W42999   0.795  38.209  51.039
51076W        W43000   1.272  33.235  50.135
51077W        W43001  42.688  29.245  51.068
51078W        W43002   2.795  39.186  50.623
51079W        W43003  38.720  32.234  51.516
51080W        W43004  32.222  16.759  51.041
51081W        W43005   8.241  11.776  51.501
51082W        W43006  29.714  17.266  52.409
51083W        W43007  48.200  27.232  50.144
51084W        W43008  46.177  15.239  51.979
51085W        W43009  17.260  20.223  51.490
51086W        W43010  29.231  30.714  53.358
51087W        W43011  44.693  14.260  52.432
51088W        W43012   9.747  27.749  51.506
51089W        W43013   1.784   8.265  50.578
51090W        W43014  30.730  10.245  50.134
51091W        W43015  38.211   0.751  51.991
51092W        W43016   0.786  46.175  52.431
51093W        W43017  31.745  47.201  50.592
51094W        W43018   5.746  31.713  51.507
51095W        W43019  17.729  42.695  52.904
51096W        W43020  43.711  33.237  50.159
51097W        W43021  27.723  27.213  53.790
51098W        W43022   1.765   7.277  51.972
51099W        W43023  10.763   0.262  51.968
51100W        W43024  44.184  45.176  52.409
51101W        W43025  25.733   1.252  53.335
51102W        W43026  22.728  26.209  51.498
51103W        W43027  48.203   4.246  50.143
51104W        W43028  28.741  36.704  53.810
51105W        W43029   5.276  24.250  51.528
51106W        W43030   8.261   1.768  50.134
51107W        W43031  19.725  20.719  53.341
51108W        W43032  12.271  22.237  53.330
51109W        W43033  38.735  38.214  51.060
51110W        W43034  25.220  31.206  53.808
51111W        W43035  10.234  22.733  50.613
51112W        W43036  44.219  41.704  51.049
51113W        W43037  38.716  26.217  50.151
51114W        W43038  47.698  15.265  52.422
51115W        W43039   8.247  11.243  51.504
51116W        W43040   4.292  12.757  51.035
51117W        W43041  23.728  10.279  50.596
51118W        W43042  24.226  26.241  52.446
51119W        W43043  46.212  16.743  51.511
51120W        W43044   9.268  12.769  53.360
51121W        W43045  28.742  43.226  51.070
51122W        W43046  19.229  20.728  53.812
51123W        W43047  26.718   2.767  50.590
51124W        W43048  32.232  36.225  50.595
51125W        W43049  37.700  17.257  53.360
51126W        W43050  19.252  26.220  52.863
51127W        W43051   2.768   8.771  52.410
51128W        W43052  34.731  17.245  50.138
51129W        W43053  20.751  42.681  51.946
51130W        W43054  25.723  40.223  51.493
51131W        W43055   1.796  17.244  53.784
51132W        W43056  22.744  23.745  53.327
51133W        W43057  15.726  18.726  53.805
51134W        W43058  42.218  31.232  53.333
51135W        W43059   4.289  15.249  50.124
51136W        W43060  37.708  36.706  52.414
51137W        W43061  30.724  17.726  49.676
51138W        W43062  23.219  44.677  51.973
51139W        W43063  17.763  35.738  51.531
51140W        W43064   9.772   4.291  50.620
51141W        W43065  22.224   6.764  51.491
51142W        W43066  32.230  35.726  52.405
51143W        W43067  38.699   6.287  50.150
51144W        W43068  24.720   0.773  53.346
51145W        W43069  21.714  30.239  53.339
51146W        W43070  39.698  42.214  50.137
51147W        W43071  36.714  47.672  52.895
51148W        W43072  43.706  13.777  51.045
51149W        W43073  14.261  36.692  50.599
51150W        W43074   1.271  29.708  51.986
51151W        W43075  11.259  38.727  53.796
51152W        W43076  46.210  43.190  53.337
51153W        W43077   5.264  26.726  50.162
51154W        W43078  41.225  48.188  53.349
51155W        W43079  16.242  46.674  52.429
51156W        W43080  25.718  10.239  51.527
51157W        W43081   7.764  37.235  51.528
51158W        W43082  46.194  20.223  51.039
51159W        W43083  27.233  43.213  52.422
51160W        W43084  34.232  25.750  50.158
51161W        W43085  34.714  18.730  52.866
51162W        W43086  40.720  41.703  53.353
51163W        W43087  15.755  17.250  53.785
51164W        W43088  38.206  29.207  51.519
51165W        W43089  21.750  40.692  52.433
51166W        W43090   0.790  11.255  51.512
51167W        W43091   3.788  18.242  51.519
51168W        W43092   2.267  13.272  50.593
51169W        W43093   2.768   1.273  50.162
51170W        W43094  13.235   2.277  50.132
51171W        W43095  35.709  23.223  49.693
51172W        W43096  32.216   9.739  50.158
51173W        W43097   7.774  46.697  51.063
51174W        W43098  13.741  31.236  52.418
51175W        W43099   1.266  20.734  52.891
51176W        W43100  23.247   7.772  50.166
51177W        W43101  33.226  24.715  53.317
51178W        W43102  13.746  11.733  51.500
51179W        W43103  11.744  23.740  50.603
51180W        W43104  20.761   8.262  51.985
51181W        W43105  27.754  23.235  51.517
51182W        W43106  46.691   6.749  51.962
51183W        W43107  47.185  34.212  51.074
51184W        W43108   2.284  36.728  52.431
51185W        W43109  24.253  45.696  51.982
51186W        W43110  33.723  30.725  51.498
51187W        W43111  14.748  12.733  51.043
51188W        W43112  42.709  17.723  50.161
51189W        W43113  23.750  14.729  49.708
51190W        W43114  18.750  41.682  51.965
51191W        W43115  11.251  15.764  53.810
51192W        W43116  26.708  23.723  53.792
51193W        W43117  12.733  16.770  53.793
51194W        W43118  42.202  10.743  53.319
51195W        W43119  36.197  12.231  51.524
51196W        W43120   0.252  15.740  50.595
51197W        W43121  28.216  22.248  51.976
51198W        W43122  14.235  27.752  50.124
51199W        W43123  32.243   4.262  50.586
51200W        W43124  11.251   9.257  50.147
51201W        W43125   6.786  29.735  50.157
51202W        W43126  37.216  17.233  50.130
51203W        W43127  38.229  38.207  51.068
51204W        W43128  26.213  19.735  53.777
51205W        W43129   4.271  26.209  50.602
51206W        W43130   3.758  42.210  50.145
51207W        W43131   3.756  24.753  51.053
51208W        W43132  45.705  47.681  51.058
51209W        W43133  39.187  28.740  52.872
51210W        W43134  24.724  46.721  51.065
51211W        W43135  35.713  22.758  50.614
51212W        W43136  38.219  24.248  53.789
51213W        W43137  22.247  10.280  53.804
51214W        W43138   4.274  17.721  50.602
51215W        W43139  46.181  44.680  52.877
51216W        W43140  26.745  18.728  52.411
51217W        W43141  47.682  43.716  52.900
51218W        W43142  40.231  21.229  51.046
51219W        W43143  36.701  31.229  51.503
51220W        W43144  41.705  24.227  51.532
51221W        W43145  29.720  38.197  52.881
51222W        W43146  34.223  32.214  51.050
51223W        W43147   1.764  12.741  52.443
51224W        W43148  10.260   5.786  51.502
51225W        W43149   4.751  20.228  52.897
51226W        W43150  44.205  12.752  49.685
51227W        W43151  23.223  21.731  50.149
51228W        W43152  48.179  47.679  51.950
51229W        W43153  16.731  17.768  51.961
51230W        W43154   8.763  22.759  50.124
51231W        W43155  28.231   8.753  51.504
51232W        W43156  14.775  41.682  51.073
51233W        W43157  39.709  46.177  49.693
51234W        W43158   1.282  45.686  53.336
51235W        W43159   6.257  23.243  52.904
51236W        W43160   5.255  40.718  50.140
51237W        W43161  21.740  24.232  50.132
51238W        W43162  11.744  47.708  51.527
51239W        W43163  39.197  22.751  51.058
51240W        W43164  36.714  46.206  52.424
51241W        W43165  44.699  30.744  51.973
51242W        W43166   4.764   3.778  51.047
51243W        W43167   1.788  27.220  52.441
51244W        W43168  35.729  28.742  51.535
51245W        W43169   0.765  26.223  50.134
51246W        W43170  16.258  10.752  50.592
51247W        W43171  46.208  43.708  52.903
51248W        W43172  46.188   3.254  53.330
51249W        W43173  14.230  24.713  49.699
51250W        W43174  10.280   9.249  51.495
51251W        W43175  45.218  13.275  51.052
51252W        W43176  12.247  24.227  53.817
51253W        W43177  29.247  19.751  51.492
51254W        W43178  11.239  20.724  51.503
51255W        W43179   3.768  30.207  52.414
51256W        W43180  34.698  17.755  51.516
51257W        W43181   4.781  22.220  51.964
51258W        W43182  22.719  27.749  51.049
51259W        W43183   6.758   7.256  53.786
51260W        W43184  21.750  11.769  52.889
51261W        W43185   0.753  20.731  50.135
51262W        W43186   5.775   2.277  51.065
51263W        W43187  22.715  20.254  49.684
51264W        W43188  17.234  32.728  52.433
51265W        W43189  33.205   0.293  51.964
51266W        W43190  41.724  34.737  50.142
51267W        W43191   3.783  24.737  51.964
51268W        W43192  21.240   0.756  51.495
51269W        W43193  21.745  18.743  52.415
51270W        W43194  14.256  39.198  51.072
51271W        W43195  41.207  43.708  51.499
51272W        W43196  20.743   9.737  49.678
51273W        W43197  19.233  20.263  49.709
51274W        W43198  15.758  43.228  53.324
51275W        W43199   6.760  16.237  50.616
51276W        W43200   6.770  23.746  52.426
51277W        W43201   1.261  21.242  50.144
51278W        W43202  34.725  30.212  50.600
51279W        W43203  39.720  27.214  51.515
51280W        W43204  37.693  44.184  53.323
51281W        W43205  14.266  36.691  51.038
51282W        W43206  16.745   9.237  53.781
51283W        W43207  20.745  26.248  52.406
51284W        W43208   8.763   5.779  52.894
51285W        W43209   0.764  14.236  51.528
51286W        W43210  11.268  42.228  52.416
51287W        W43211  26.710  32.700  51.525
51288W        W43212  16.741  46.698  52.873
51289W        W43213  46.209  34.716  50.609
51290W        W43214  39.203   7.264  52.880
51291W        W43215  12.737  26.232  51.956
51292W        W43216  37.692  23.736  50.587
51293W        W43217  20.724  43.209  51.066
51294W        W43218  12.239  20.247  53.796
51295W        W43219  40.699  21.261  49.682
51296W        W43220  40.685  35.220  53.346
51297W        W43221   6.748  36.222  51.520
51298W        W43222  12.279  11.773  50.619
51299W        W43223  12.731  25.230  53.341
51300W        W43224  35.713  13.751  50.131
51301W        W43225   9.269   3.257  53.355
51302W        W43226  20.739  35.709  51.060
51303W        W43227  39.218  34.212  51.532
51304W        W43228  37.725  27.253  52.415
51305W        W43229  40.185  25.243  52.872
51306W        W43230  24.228  23.723  53.322
51307W        W43231  30.701  41.687  51.041
51308W        W43232  43.686  47.672  50.132
51309W        W43233  15.741  26.714  51.043
51310W        W43234  24.726  46.706  50.161
51311W        W43235  34.730  16.259  50.142
51312W        W43236   6.767  10.772  51.971
51313W        W43237  12.759  47.675  52.867
51314W        W43238  32.229  26.752  52.873
51315W        W43239  32.211  17.741  53.797
51316W        W43240  45.676  41.187  49.705
51317W        W43241  25.715  47.196  51.947
51318W        W43242  48.196  23.225  50.144
51319W        W43243  13.774  24.243  53.333
51320W        W43244  46.192  32.246  51.529
51321W        W43245  46.214  39.192  52.420
51322W        W43246  37.708  32.742  53.802
51323W        W43247  39.200  16.232  53.334
51324W        W43248  40.213  42.702  51.067
51325W        W43249  14.228  12.249  53.317
51326W        W43250  44.185  27.228  50.601
51327W        W43251  16.227   8.237  52.889
51328W        W43252  24.758  46.201  53.780
51329W        W43253  37.198  20.232  49.673
51330W        W43254  42.186  27.213  50.138
51331W        W43255   5.242  33.742  51.991
51332W        W43256  20.731  11.776  50.621
51333W        W43257  34.194   0.290  51.955
51334W        W43258  28.209  23.719  52.418
51335W        W43259  29.232  35.718  52.405
51336W        W43260   0.783  20.259  50.605
51337W        W43261  32.696  27.741  49.709
51338W        W43262  40.684  34.204  51.534
51339W        W43263   0.297  16.761  53.779
51340W        W43264  39.724   8.261  53.355
51341W        W43265  13.744  45.203  49.668
51342W        W43266  16.742  22.758  49.687
51343W        W43267  10.747  37.229  52.895
51344W        W43268  38.227  36.210  51.949
51345W        W43269  37.734  27.712  51.962
51346W        W43270  19.737  47.186  52.880
51347W        W43271  22.234  27.219  51.970
51348W        W43272  18.752  44.212  52.437
51349W        W43273  26.755  21.736  49.706
51350W        W43274  26.728  13.239  50.164
51351W        W43275  26.220  27.733  52.868
51352W        W43276  40.187   9.244  52.887
51353W        W43277  25.719  46.694  52.419
51354W        W43278  26.746  47.215  51.989
51355W        W43279  23.725   1.296  52.438
51356W        W43280  33.707  21.239  53.784
51357W        W43281  37.723  43.716  52.861
51358W        W43282  34.221  10.251  53.802
51359W        W43283  17.264  35.231  51.513
51360W        W43284  11.731  15.243  53.350
51361W        W43285   7.774  22.719  51.974
51362W        W43286  39.222   8.256  53.793
51363W        W43287  37.722  33.710  50.618
51364W        W43288  18.766  35.238  53.341
51365W        W43289  25.231  15.247  51.957
51366W        W43290   0.749  28.735  53.335
51367W        W43291   1.263   9.267  53.801
51368W        W43292  15.261  11.758  50.121
51369W        W43293   1.297  45.176  52.875
51370W        W43294   1.253  16.266  51.073
51371W        W43295  48.216  26.750  53.321
51372W        W43296  14.737  44.193  51.058
51373W        W43297  28.733  21.756  51.507
51374W        W43298  15.743   3.792  53.814
51375W        W43299  34.722  45.706  53.338
51376W        W43300  10.261  14.262  53.802
51377W        W43301  37.709  23.239  52.404
51378W        W43302  38.230  18.766  53.319
51379W        W43303   2.783   1.793  52.412
51380W        W43304  20.236  14.728  51.511
51381W        W43305  30.722   6.274  53.779
51382W        W43306  36.191   0.766  52.410
51383W        W43307   7.742  15.250  49.683
51384W        W43308  12.260  34.215  50.584
51385W        W43309  32.739  19.749  53.806
51386W        W43310  19.753  45.676  52.406
51387W        W43311  44.686  45.714  52.408
51388W        W43312  43.715   0.786  52.425
51389W        W43313  13.248  13.741  51.504
51390W        W43314   7.764  17.752  51.499
51391W        W43315   9.757  37.688  53.322
51392W        W43316  43.185  19.748  52.432
51393W        W43317  32.210  47.221  49.671
51394W        W43318  34.226  21.747  51.051
51395W        W43319  47.212  32.230  51.522
51396W        W43320  12.743   1.787  53.775
51397W        W43321  42.195   7.262  53.779
51398W        W43322  12.735  30.726  51.073
51399W        W43323  33.233  45.206  52.868
51400W        W43324   5.775  36.194  51.060
51401W        W43325  13.769  44.197  50.149
51402W        W43326  10.260  47.217  51.956
51403W        W43327  42.709  26.735  51.517
51404W        W43328  27.725  24.246  51.965
51405W        W43329   5.778  21.249  49.701
51406W        W43330  18.253  23.213  50.607
51407W        W43331  41.207   7.278  51.951
51408W        W43332  34.204   3.265  52.867
51409W        W43333  17.754  17.770  53.773
51410W        W43334   9.737   0.265  51.076
51411W        W43335  11.231  48.196  52.425
51412W        W43336  43.215  37.229  49.696
51413W        W43337  32.226   0.757  53.349
51414W        W43338  21.716  41.714  52.890
51415W        W43339  32.745  24.219  52.867
51416W        W43340  19.257  43.187  53.338
51417W        W43341  34.206  39.234  50.127
51418W        W43342  20.745  13.262  50.130
51419W        W43343  34.242  26.752  51.054
51420W        W43344  12.257  31.206  50.584
51421W        W43345  48.183  16.762  53.352
51422W        W43346  28.744  43.681  50.138
51423W        W43347  18.743  35.237  50.599
51424W        W43348  14.752  40.699  53.350
51425W        W43349  26.209  20.262  52.404
51426W        W43350  17.759   2.278  51.513
51427W        W43351  25.752  41.217  51.499
51428W        W43352  37.197  46.676  51.039
51429W        W43353  11.750  12.744  50.607
51430W        W43354   9.254   7.277  53.783
51431W        W43355   7.267  15.758  51.034
51432W        W43356  25.730  37.729  51.949
51433W        W43357  34.711  38.231  52.409
51434W        W43358  25.727  12.764  50.609
51435W        W43359  39.211  28.219  52.875
51436W        W43360   4.283  25.737  51.960
51437W        W43361  24.710  27.724  52.884
51438W        W43362  40.212  35.229  50.159
51439W        W43363  47.202  10.251  50.617
51440W        W43364  38.697  44.697  51.985
51441W        W43365  28.239  46.219  50.579
51442W        W43366   5.266  29.742  53.794
51443W        W43367   8.742  42.723  51.050
51444W        W43368  42.185  43.721  50.165
51445W        W43369   2.252  47.213  50.165
51446W        W43370  26.744   5.285  50.615
51447W        W43371  33.724  45.720  53.791
51448W        W43372  38.233  45.712  51.528
51449W        W43373  32.717  17.240  52.416
51450W        W43374  27.749  46.695  53.790
51451W        W43375  36.221  28.717  51.065
51452W        W43376  26.749  14.244  51.503
51453W        W43377  34.707  20.765  50.156
51454W        W43378  12.251  13.244  51.950
51455W        W43379  40.733  31.225  52.863
51456W        W43380  35.712   4.768  53.348
51457W        W43381  19.236   9.773  50.136
51458W        W43382  47.698  13.247  53.332
51459W        W43383  35.740  22.760  52.417
51460W        W43384  15.252   1.282  50.143
51461W        W43385  19.255  38.690  51.041
51462W        W43386  30.201   2.768  49.707
51463W        W43387  23.728  28.204  52.882
51464W        W43388   7.778   2.274  49.708
51465W        W43389  37.733  26.739  49.684
51466W        W43390   5.760  14.243  50.611
51467W        W43391  31.716  43.690  50.161
51468W        W43392   7.783   9.766  53.322
51469W        W43393  27.724   2.279  51.061
51470W        W43394   1.271  32.731  53.355
51471W        W43395  41.185   5.267  53.333
51472W        W43396  45.702   4.744  52.885
51473W        W43397  12.249  35.693  53.330
51474W        W43398  15.768  44.189  50.152
51475W        W43399  20.738  11.233  53.776
51476W        W43400   5.274   3.756  52.885
51477W        W43401  16.733   7.257  51.502
51478W        W43402  39.193  46.217  50.137
51479W        W43403  41.727  37.202  49.682
51480W        W43404  48.187  45.700  52.415
51481W        W43405  38.712  40.216  52.436
51482W        W43406  38.191  34.742  50.584
51483W        W43407  21.733   5.769  51.519
51484W        W43408  20.251  10.756  52.408
51485W        W43409  16.272   9.235  50.121
51486W        W43410  10.258  12.245  51.512
51487W        W43411  11.775   2.776  49.665
51488W        W43412   6.749   4.292  49.692
51489W        W43413   6.284  26.244  52.887
51490W        W43414  10.239   7.780  50.150
51491W        W43415  36.210   7.783  52.860
51492W        W43416  11.242  16.227  52.403
51493W        W43417  31.742   3.774  52.418
51494W        W43418  29.241  18.745  52.403
51495W        W43419  11.734  18.233  52.418
51496W        W43420   5.261  29.247  49.705
51497W        W43421  34.717  24.720  49.672
51498W        W43422  18.250  13.276  51.067
51499W        W43423  45.718  46.691  50.607
51500W        W43424  30.246  45.700  53.355
51501W        W43425  20.243   4.253  50.132
51502W        W43426  10.767  22.248  51.039
51503W        W43427  10.252  18.251  53.781
51504W        W43428  24.755  10.734  49.677
51505W        W43429   0.292  43.704  51.056
51506W        W43430   8.270  41.682  51.991
51507W        W43431  39.227  23.236  49.679
51508W        W43432  20.259  25.223  50.596
51509W        W43433  23.258  40.194  50.148
51510W        W43434  24.729  26.735  51.076
51511W        W43435  44.690  35.693  50.153
51512W        W43436  12.759  18.251  52.411
51513W        W43437  35.233  48.185  49.696
51514W        W43438  45.700  11.755  50.150
51515W        W43439  30.208  23.722  51.519
51516W        W43440  12.245  45.219  50.164
51517W        W43441   8.771  29.239  51.501
51518W        W43442  37.690  24.751  50.140
51519W        W43443  22.715  21.256  53.788
51520W        W43444   0.282  24.733  50.582
51521W        W43445  15.726  16.766  51.495
51522W        W43446  46.203  40.725  50.136
51523W        W43447   8.751  21.729  50.589
51524W        W43448  40.718  11.763  52.896
51525W        W43449   5.289  18.768  49.671
51526W        W43450   4.788  24.239  51.046
51527W        W43451  22.721   4.276  53.340
51528W        W43452  17.239  11.773  50.122
51529W        W43453  45.210  35.194  53.784
51530W        W43454  36.228  48.185  52.894
51531W        W43455  11.743  28.725  51.970
51532W        W43456   5.786  47.181  51.971
51533W        W43457  17.734  33.196  49.666
51534W        W43458  23.248  41.227  51.510
51535W        W43459  16.262  12.274  53.790
51536W        W43460  38.197  35.201  51.034
51537W        W43461   9.253   6.268  53.327
51538W        W43462  30.222  44.725  49.702
51539W        W43463   4.267  10.238  52.415
51540W        W43464  13.746  17.734  51.964
51541W        W43465  32.200  20.740  50.156
51542W        W43466  31.219  45.187  53.804
51543W        W43467  28.239  42.205  51.508
51544W        W43468  18.765  33.228  53.319
51545W        W43469  24.219  17.722  50.621
51546W        W43470  18.261  16.764  50.152
51547W        W43471  47.709  46.695  53.809
51548W        W43472  37.722  47.196  50.123
51549W        W43473  36.712  14.754  51.952
51550W        W43474  16.272  16.260  51.533
51551W        W43475  20.234  26.224  50.581
51552W        W43476  45.208   7.288  51.519
51553W        W43477   1.770  15.736  53.319
51554W        W43478   5.247   3.262  51.989
51555W        W43479  35.717  44.202  51.963
51556W        W43480  24.757  46.676  53.330
51557W        W43481   1.253  36.698  53.816
51558W        W43482  23.722  12.231  53.329
51559W        W43483   4.263  29.733  52.887
51560W        W43484  14.754  11.774  53.325
51561W        W43485  25.254  43.187  50.128
51562W        W43486  15.737  13.258  50.579
51563W        W43487  42.227  28.223  52.443
51564W        W43488  38.724  27.735  53.337
51565W        W43489  37.728   2.253  51.058
51566W        W43490  10.753  10.754  49.709
51567W        W43491  19.757  30.748  51.036
51568W        W43492  41.208   0.257  52.431
51569W        W43493  34.694  21.734  51.053
51570W        W43494  29.225  15.771  52.424
51571W        W43495  16.759  43.201  52.428
51572W        W43496  33.213  42.230  50.126
51573W        W43497  13.747  11.779  52.443
51574W        W43498  11.744  23.751  52.444
51575W        W43499  46.695  40.227  50.599
51576W        W43500  32.230  13.745  52.903
51577W        W43501  15.273   2.785  49.676
51578W        W43502  39.699   1.272  50.614
51579W        W43503  37.222  46.700  53.317
51580W        W43504  26.236  26.725  49.672
51581W        W43505  36.233  23.224  50.128
51582W        W43506  20.255  40.222  51.038
51583W        W43507  34.694  26.712  51.956
51584W        W43508  18.723   0.272  51.048
51585W        W43509  33.716  26.750  49.672
51586W        W43510  46.694  11.260  52.415
51587W        W43511  15.248   5.268  51.493
51588W        W43512  23.236  21.752  49.697
51589W        W43513  17.233  25.731  51.980
51590W        W43514  19.264  28.747  51.061
51591W        W43515  18.242  10.248  51.965
51592W        W43516  22.238  36.719  51.950
51593W        W43517  32.724  43.692  51.967
51594W        W43518   4.772  37.726  52.430
51595W        W43519  34.218  47.679  51.079
51596W        W43520  19.740  37.700  52.885
51597W        W43521  36.697  11.758  52.419
51598W        W43522   3.790  28.703  52.860
51599W        W43523   3.291  27.228  53.810
51600W        W43524  41.719   5.742  53.796
51601W        W43525  35.216   4.756  53.345
51602W        W43526   1.780  12.731  50.128
51603W        W43527  34.736   5.767  52.872
51604W        W43528  22.749  32.206  52.878
51605W        W43529  33.205   0.762  51.518
51606W        W43530   6.771  10.761  50.133
51607W        W43531  26.746   8.282  53.341
51608W        W43532  28.236  41.719  51.069
51609W        W43533  23.225  48.215  50.140
51610W        W43534  27.237  31.720  52.425
51611W        W43535  35.720  21.724  51.533
51612W        W43536  40.219  36.721  53.337
51613W        W43537  18.222  28.204  50.606
51614W        W43538  26.708  19.267  50.607
51615W        W43539   2.248  25.216  50.142
51616W        W43540   3.256  45.192  50.146
51617W        W43541  24.727  10.272  52.884
51618W        W43542  46.693  36.203  51.530
51619W        W43543  40.231   7.256  52.410
51620W        W43544  28.238  33.225  51.064
51621W        W43545   4.757   6.269  51.059
51622W        W43546  35.235  15.727  51.967
51623W        W43547   3.259  42.210  52.897
51624W        W43548  38.236  42.687  49.680
51625W        W43549  37.733  22.256  50.589
51626W        W43550  25.230  19.245  51.044
51627W        W43551  11.735  18.233  53.783
51628W        W43552   8.270  32.705  50.150
51629W        W43553  45.723  17.767  49.670
51630W        W43554   6.288  27.228  49.688
51631W        W43555   3.751  34.241  52.433
51632W        W43556  27.206  35.730  52.866
51633W        W43557   3.280  29.241  51.963
51634W        W43558  43.701  21.252  50.622
51635W        W43559  36.718  39.733  53.782
51636W        W43560  29.720   3.289  51.953
51637W        W43561  25.740  21.751  50.131
51638W        W43562  19.250  15.258  51.048
51639W        W43563  37.716   2.769  51.057
51640W        W43564  15.254  18.730  52.431
51641W        W43565  44.685  14.244  53.785
51642W        W43566  36.727  14.770  52.894
51643W        W43567   0.297  27.227  50.166
51644W        W43568  16.236  22.240  51.953
51645W        W43569  34.723  38.708  52.872
51646W        W43570  23.233  13.742  49.696
51647W        W43571  10.265  34.699  51.076
51648W        W43572  45.208   9.759  51.990
51649W        W43573  17.229  28.743  52.428
51650W        W43574  45.691  25.223  50.132
51651W        W43575  16.734  23.221  53.319
51652W        W43576   9.277  19.760  51.065
51653W        W43577  27.713   6.757  51.971
51654W        W43578  10.276   7.249  53.773
51655W        W43579  40.219  42.728  51.507
51656W        W43580  36.224   7.787  51.986
51657W        W43581  43.190  11.762  52.437
51658W        W43582  21.718  31.714  49.681
51659W        W43583  45.698   8.283  53.323
51660W        W43584  39.694  21.244  51.515
51661W        W43585  34.223  44.676  53.324
51662W        W43586  17.770  39.698  51.534
51663W        W43587  30.718  34.222  51.073
51664W        W43588   5.268  19.743  50.621
51665W        W43589  38.711  13.278  51.039
51666W        W43590   4.761   7.739  53.337
51667W        W43591  22.721  25.753  49.696
51668W        W43592   4.752   7.775  49.697
51669W        W43593  40.225   4.747  50.166
51670W        W43594  18.740  32.216  53.332
51671W        W43595  18.730  36.217  52.873
51672W        W43596  33.232  32.741  51.047
51673W        W43597  25.246   7.283  53.811
51674W        W43598  20.762  44.223  53.784
51675W        W43599  15.764  23.745  49.697
51676W        W43600  47.186  31.716  51.966
51677W        W43601   1.261   1.258  51.974
51678W        W43602  31.239   2.779  51.040
51679W        W43603  42.204  29.245  53.801
51680W        W43604  42.229  15.731  52.413
51681W        W43605  13.253   0.788  50.616
51682W        W43606  40.215  29.738  50.604
51683W        W43607  24.215   5.770  49.710
51684W        W43608  33.733  18.224  53.327
51685W        W43609  33.741  31.221  52.423
51686W        W43610  42.192  31.240  53.813
51687W        W43611  23.235  12.269  52.887
51688W        W43612  32.713   4.762  53.325
51689W        W43613  15.760  26.210  53.810
51690W        W43614  43.684  31.226  53.791
51691W        W43615   3.266  10.757  51.055
51692W        W43616  15.760  20.766  51.986
51693W        W43617  47.177  43.680  52.425
51694W        W43618  14.262   8.751  49.695
51695W        W43619   5.261  41.701  52.882
51696W        W43620   7.250  47.210  52.877
51697W        W43621  29.216   2.252  51.506
51698W        W43622  33.738  40.200  50.581
51699W        W43623  23.733  35.733  51.059
51700W        W43624  42.707   8.246  53.810
51701W        W43625   2.776  45.188  49.680
51702W        W43626  39.727  10.251  53.324
51703W        W43627  40.188  38.723  52.860
51704W        W43628  10.775  43.705  52.408
51705W        W43629   8.778  18.242  50.166
51706W        W43630  45.219  12.236  52.898
51707W        W43631  26.234  44.689  49.697
51708W        W43632  17.254  18.748  51.533
51709W        W43633  20.755   4.250  51.529
51710W        W43634  32.702  21.734  52.417
51711W        W43635  11.745  15.754  51.492
51712W        W43636  30.209   6.287  53.776
51713W        W43637  33.204  37.217  50.138
51714W        W43638   7.266  43.204  49.669
51715W        W43639  15.246  12.275  53.817
51716W        W43640   0.254  39.694  49.689
51717W        W43641  27.707   3.274  52.885
51718W        W43642  31.740  44.713  49.680
51719W        W43643  45.695  26.717  51.036
51720W        W43644  23.757  44.716  52.888
51721W        W43645   9.242  10.734  51.043
51722W        W43646  17.252  47.693  51.955
51723W        W43647   9.765  14.236  49.693
51724W        W43648  36.699   2.287  49.706
51725W        W43649  14.744   3.773  53.815
51726W        W43650  13.276   8.240  53.332
51727W        W43651  15.240  12.276  50.155
51728W        W43652   3.779   9.239  52.414
51729W        W43653  17.236  39.215  52.435
51730W        W43654  44.195  45.179  51.966
51731W        W43655  33.698  18.254  51.058
51732W        W43656  41.208  44.215  51.984
51733W        W43657  46.181  24.733  50.133
51734W        W43658   3.281  40.714  50.158
51735W        W43659  26.749  39.734  49.703
51736W        W43660  45.216  33.205  53.774
51737W        W43661   4.280  37.209  50.587
51738W        W43662  15.746  42.686  53.361
51739W        W43663  24.722  34.212  49.694
51740W        W43664  21.222  32.720  50.611
51741W        W43665  29.704   4.283  51.962
51742W        W43666  22.751   0.274  52.416
51743W        W43667  32.198   5.272  51.035
51744W        W43668  37.732   1.762  52.875
51745W        W43669  10.252   2.257  52.875
51746W        W43670   2.250  40.210  50.126
51747W        W43671  17.232  33.725  51.514
51748W        W43672   8.777  21.760  52.422
51749W        W43673  33.743  38.192  52.861
51750W        W43674   1.297  36.231  50.161
51751W        W43675  14.739  15.743  51.965
51752W        W43676  37.733   0.792  50.166
51753W        W43677  31.224   1.774  51.505
51754W        W43678   2.283  43.691  49.697
51755W        W43679   3.769  15.726  50.159
51756W        W43680  40.701  41.712  51.053
51757W        W43681  43.220  31.737  52.886
51758W        W43682  31.223   3.262  52.888
51759W        W43683  34.217  34.737  51.078
51760W        W43684  27.223  18.249  50.588
51761W        W43685  21.755  40.228  53.351
51762W        W43686  15.769   7.251  51.035
51763W        W43687  23.757  23.215  51.971
51764W        W43688  38.232  44.224  49.697
51765W        W43689  33.205   3.765  51.506
51766W        W43690  16.730  22.761  53.343
51767W        W43691  16.726  44.203  51.977
51768W        W43692   5.258  29.730  52.445
51769W        W43693   0.269  26.256  52.875
51770W        W43694  32.230  39.229  51.986
51771W        W43695  21.719  25.240  53.799
51772W        W43696  25.748  36.221  51.971
51773W        W43697  14.243   5.764  51.517
51774W        W43698  25.232  22.718  50.600
51775W        W43699   6.743  13.264  50.162
51776W        W43700   1.291  47.211  49.672
51777W        W43701  48.195   2.793  53.327
51778W        W43702  26.240  16.733  51.970
51779W        W43703  13.750  47.713  50.136
51780W        W43704  29.725  42.695  51.970
51781W        W43705  11.770   3.749  53.780
51782W        W43706  22.214  46.686  52.440
51783W        W43707  33.196  10.778  49.672
51784W        W43708  41.212   4.254  50.602
51785W        W43709  47.698   0.283  51.971
51786W        W43710   3.789   9.264  51.523
51787W        W43711   2.766  25.728  50.140
51788W        W43712  28.231   4.779  51.523
51789W        W43713  13.255  36.194  50.160
51790W        W43714  16.730  10.756  49.688
51791W        W43715   2.751  33.734  52.414
51792W        W43716  24.246  24.752  49.673
51793W        W43717  33.233  25.227  53.343
51794W        W43718  45.695   4.788  50.136
51795W        W43719  18.235   3.259  50.165
51796W        W43720  23.220  22.262  52.870
51797W        W43721  45.680  36.730  51.495
51798W        W43722  26.754  11.268  51.532
51799W        W43723  14.243  17.264  49.707
51800W        W43724   3.255  19.752  51.954
51801W        W43725   7.740  35.222  51.069
51802W        W43726  35.728  19.229  49.678
51803W        W43727   0.287  29.712  50.616
51804W        W43728  35.717  16.269  52.890
51805W        W43729  27.737  29.717  49.672
51806W        W43730  26.224   1.261  52.405
51807W        W43731  29.218  25.745  49.706
51808W        W43732   3.287  11.736  53.815
51809W        W43733  44.696  23.259  52.407
51810W        W43734  22.755  43.695  51.505
51811W        W43735  43.695   5.773  52.447
51812W        W43736  39.717   8.750  53.337
51813W        W43737  29.733  18.751  51.495
51814W        W43738  37.708  44.708  50.128
51815W        W43739  37.222  39.723  52.428
51816W        W43740  47.718  45.715  52.888
51817W        W43741  20.752  23.713  52.867
51818W        W43742   7.785  13.259  53.320
51819W        W43743  47.699  17.723  53.797
51820W        W43744  40.232  19.766  49.672
51821W        W43745  25.724   4.749  50.617
51822W        W43746  19.733  12.743  51.530
51823W        W43747  37.721   3.248  51.501
51824W        W43748  25.256  10.249  50.137
51825W        W43749   3.788  27.230  53.786
51826W        W43750  35.734  42.207  52.406
51827W        W43751  34.731   8.783  50.137
51828W        W43752  18.234   2.259  51.984
51829W        W43753  31.728   8.250  51.497
51830W        W43754   9.263  15.760  50.602
51831W        W43755   7.245  23.247  53.316
51832W        W43756  39.711  35.737  53.809
51833W        W43757  39.219  26.708  53.790
51834W        W43758  11.780  41.725  52.878
51835W        W43759   9.776  27.727  52.442
51836W        W43760   3.258  41.189  51.035
51837W        W43761  16.225   6.266  52.404
51838W        W43762  23.736  36.705  52.895
51839W        W43763  32.198  47.679  53.789
51840W        W43764  34.713  27.206  51.041
51841W        W43765  28.206  43.715  53.341
51842W        W43766  31.221  29.709  50.150
51843W        W43767   0.770   2.258  52.872
51844W        W43768  35.235   1.791  49.703
51845W        W43769  48.220  15.734  51.048
51846W        W43770  28.717  17.731  53.785
51847W        W43771  34.239   4.270  51.533
51848W        W43772   3.779  24.246  50.165
51849W        W43773   4.745  10.733  51.042
51850W        W43774   6.774   8.240  51.532
51851W        W43775  26.722   9.277  50.144
51852W        W43776  20.764  13.269  51.946
51853W        W43777  20.231  38.724  51.045
51854W        W43778  19.738  45.192  51.494
51855W        W43779  21.741  39.193  53.351
51856W        W43780   7.769  27.212  49.677
51857W        W43781   0.793  45.684  51.504
51858W        W43782  27.215  28.726  53.811
51859W        W43783  31.708  31.209  53.788
51860W        W43784   2.771   5.246  50.606
51861W        W43785   5.258  36.217  50.125
51862W        W43786   9.243  45.724  51.071
51863W        W43787  41.682  45.715  53.792
51864W        W43788  36.699  10.758  51.975
51865W        W43789  47.688  33.723  53.791
51866W        W43790  18.740  11.266  53.794
51867W        W43791   7.742  39.193  51.045
51868W        W43792  44.701  23.743  53.343
51869W        W43793  38.733   0.289  53.812
51870W        W43794  34.715  34.717  53.355
51871W        W43795  46.682  42.704  51.067
51872W        W43796  39.724  48.173  53.345
51873W        W43797  36.224  31.214  52.434
51874W        W43798  18.759  22.734  51.964
51875W        W43799  42.224  20.744  51.495
51876W        W43800  40.717  10.262  53.345
51877W        W43801   4.771  37.226  50.578
51878W        W43802  20.744  30.213  52.878
51879W        W43803  13.258   7.248  51.961
51880W        W43804  30.222  31.233  51.063
51881W        W43805  30.709  42.222  53.357
51882W        W43806  33.723  33.695  50.600
51883W        W43807  17.771  15.724  51.533
51884W        W43808  12.271  18.260  52.403
51885W        W43809  43.201  38.215  51.525
51886W        W43810   4.248  40.225  52.892
51887W        W43811   4.260  11.754  51.058
51888W        W43812  20.258  31.202  51.526
51889W        W43813   8.747   9.261  50.583
51890W        W43814  39.730  39.697  52.874
51891W        W43815  10.753  38.718  53.328
51892W        W43816  44.181  14.239  51.951
51893W        W43817  37.232  45.693  49.702
51894W        W43818   7.282  16.256  53.341
51895W        W43819   3.275  21.733  51.949
51896W        W43820   5.289   1.282  49.690
51897W        W43821  33.743  31.708  49.690
51898W        W43822   8.265  25.727  52.448
51899W        W43823  19.738  36.690  51.989
51900W        W43824  37.732  20.737  50.161
51901W        W43825  16.251  27.249  52.440
51902W        W43826  15.239  42.222  51.957
51903W        W43827   8.250  46.685  52.446
51904W        W43828   4.255  43.692  52.904
51905W        W43829  38.690  14.249  51.979
51906W        W43830   8.259  20.747  53.808
51907W        W43831  45.215  48.191  52.424
51908W        W43832  23.715  25.210  51.043
51909W        W43833  27.236  22.217  50.581
51910W        W43834  25.724  11.750  49.709
51911W        W43835  35.197   4.760  51.074
51912W        W43836   4.284  20.737  51.057
51913W        W43837  42.713   7.783  51.980
51914W        W43838  25.251   5.770  51.964
51915W        W43839  33.226  35.717  51.063
51916W        W43840  33.226  20.763  53.784
51917W        W43841  26.715  42.726  50.578
51918W        W43842  16.766  35.693  51.067
51919W        W43843   4.789  45.682  53.351
51920W        W43844   8.283  45.714  50.598
51921W        W43845   8.285  40.709  53.778
51922W        W43846  43.708   8.264  50.155
51923W        W43847  14.743  31.232  50.140
51924W        W43848  13.250  16.269  53.355
51925W        W43849  33.731   6.266  51.064
51926W        W43850  45.687  32.703  53.785
51927W        W43851  21.763  29.718  50.161
51928W        W43852  37.192  28.736  51.948
51929W        W43853  18.225  19.260  50.126
51930W        W43854   3.260  37.218  51.953
51931W        W43855  30.728  43.203  50.134
51932W        W43856  18.243   9.242  49.680
51933W        W43857  18.722  33.717  53.326
51934W        W43858   5.262   4.768  51.513
51935W        W43859  47.194   8.281  51.063
51936W        W43860   1.790  15.265  52.435
51937W        W43861  45.184  19.721  51.053
51938W        W43862  40.220   4.286  51.065
51939W        W43863  25.212  47.187  52.897
51940W        W43864  42.216   1.780  51.987
51941W        W43865  27.246   1.250  52.422
51942W        W43866  31.228   8.284  53.331
51943W        W43867   6.249   9.760  51.049
51944W        W43868  33.732  18.732  52.872
51945W        W43869  29.702  14.751  53.781
51946W        W43870  20.759  45.703  51.535
51947W        W43871  37.216   2.252  50.151
51948W        W43872  13.245  16.772  52.406
51949W        W43873  28.240  13.232  51.523
51950W        W43874  14.273   7.765  49.666
51951W        W43875  17.742  33.209  52.884
51952W        W43876  46.701  17.728  51.524
51953W        W43877   8.763   1.778  49.695
51954W        W43878  36.727  43.223  51.967
51955W        W43879  35.716  10.773  51.950
51956W        W43880   5.287  38.196  50.587
51957W        W43881  13.766  48.172  52.428
51958W        W43882   5.762  45.182  51.071
51959W        W43883  35.705  14.247  52.437
51960W        W43884  10.271   9.760  49.695
51961W        W43885  14.734   7.284  50.121
51962W        W43886  28.215  19.266  52.446
51963W        W43887  28.252  15.739  53.773
51964W        W43888  47.719  20.747  53.337
51965W        W43889  47.697  36.218  51.981
51966W        W43890  29.721  12.776  52.864
51967W        W43891  41.708  30.711  51.990
51968W        W43892  13.254  10.779  51.054
51969W        W43893   4.777  40.189  51.973
51970W        W43894   4.759  35.222  52.903
51971W        W43895   4.747  17.266  51.066
51972W        W43896   6.749  14.760  51.039
51973W        W43897   7.755  27.744  51.050
51974W        W43898  30.201  37.693  53.779
51975W        W43899  29.732  33.199  49.672
51976W        W43900  32.735  45.204  51.957
51977W        W43901  10.263   0.797  51.508
51978W        W43902  20.246  37.695  52.862
51979W        W43903   6.253  14.236  51.970
51980W        W43904   6.767  33.216  51.076
51981W        W43905  14.762  38.201  53.790
51982W        W43906   4.771   4.782  51.533
51983W        W43907  39.234  14.768  49.668
51984W        W43908  29.220  24.212  50.598
51985W        W43909  36.734  40.701  51.964
51986W        W43910  37.215  34.714  52.880
51987W        W43911  19.742  26.214  51.510
51988W        W43912  28.741  22.256  51.952
51989W        W43913  14.734  13.257  50.148
51990W        W43914   0.755  13.274  53.796
51991W        W43915  41.693  37.207  52.415
51992W        W43916   6.744  29.718  51.062
51993W        W43917  23.226   4.279  53.810
51994W        W43918  35.737  44.210  50.144
51995W        W43919  12.733   4.744  53.361
51996W        W43920  30.731  46.690  51.534
51997W        W43921  21.756   1.274  49.703
51998W        W43922  11.275  38.191  51.046
51999W        W43923  27.747  10.742  52.860
52000W        W43924  32.733  19.234  50.162
52001W        W43925  23.221  11.266  51.067
52002W        W43926  22.248   3.276  49.678
52003W        W43927  15.743  10.273  53.794
52004W        W43928  27.743  21.726  49.676
52005W        W43929  45.187  32.705  52.407
52006W        W43930   5.256  13.247  50.606
52007W        W43931  25.234   0.764  50.144
52008W        W43932  17.254  29.246  51.986
52009W        W43933  20.237  25.740  51.051
52010W        W43934  18.250  34.713  52.436
52011W        W43935  36.727   1.758  50.612
52012W        W43936  23.238  18.258  50.604
52013W        W43937  40.195  23.216  49.671
52014W        W43938  29.719  46.692  52.415
52015W        W43939   0.289  37.695  50.166
52016W        W43940  27.251   0.796  52.411
52017W        W43941  37.707   0.783  52.403
52018W        W43942  18.240  38.706  53.796
52019W        W43943  21.751  24.757  51.061
52020W        W43944  16.735  35.225  50.608
52021W        W43945  29.218  48.182  51.501
52022W        W43946  14.772  40.186  50.596
52023W        W43947   2.780  36.736  53.774
52024W        W43948  35.721  18.721  51.066
52025W        W43949  16.761  21.734  51.505
52026W        W43950  12.748  37.196  51.964
52027W        W43951   0.790  39.214  53.815
52028W        W43952  25.735  47.180  50.142
52029W        W43953  17.732  42.713  53.809
52030W        W43954  32.225  11.237  51.966
52031W        W43955  37.189  45.215  49.688
52032W        W43956   1.771  21.244  52.899
52033W        W43957  12.244  41.707  52.887
52034W        W43958  13.248   6.755  51.956
52035W        W43959   8.282  43.718  53.320
52036W        W43960  32.237  17.739  50.126
52037W        W43961  47.698  28.737  53.781
52038W        W43962  40.706  28.239  52.415
52039W        W43963   1.757   8.762  51.509
52040W        W43964  10.264  28.225  50.614
52041W        W43965   0.751  17.765  49.666
52042W        W43966  10.242  42.715  50.127
52043W        W43967   6.748  40.689  50.610
52044W        W43968  21.762  16.255  50.585
52045W        W43969   0.775  13.728  52.894
52046W        W43970  42.694  22.716  51.058
52047W        W43971  46.202  16.739  49.679
52048W        W43972  43.180  31.205  50.618
52049W        W43973  16.256  38.195  50.143
52050W        W43974  16.270  28.246  50.593
52051W        W43975  40.702  33.723  51.523
52052W        W43976  15.754  33.231  51.520
52053W        W43977  37.709  11.754  51.050
52054W        W43978   3.792  16.744  53.789
52055W        W43979  46.711  17.239  49.703
52056W        W43980  28.228  10.278  53.785
52057W        W43981  26.738  19.719  52.407
52058W        W43982  34.208   1.287  52.865
52059W        W43983  40.703  33.697  50.603
52060W        W43984  12.276  20.765  51.493
52061W        W43985  45.205  26.752  51.046
52062W        W43986  22.223  17.768  52.900
52063W        W43987  42.698   5.291  52.871
52064W        W43988   9.770   3.747  52.407
52065W        W43989  14.266  45.181  52.422
52066W        W43990  44.708   6.761  51.989
52067W        W43991  38.694  19.240  51.981
52068W        W43992  12.252  43.228  50.163
52069W        W43993  23.733  21.265  49.681
52070W        W43994   7.253  39.732  52.861
52071W        W43995  40.188  34.203  53.340
52072W        W43996  26.208   0.752  53.813
52073W        W43997  45.685   1.292  52.410
52074W        W43998  34.204   7.268  51.985
52075W        W43999  41.693  27.254  53.322
52076W        W44000  15.233  19.252  51.492
52077W        W44001  35.705  19.238  52.870
52078W        W44002   3.784  14.730  49.702
52079W        W44003  45.700  46.681  51.962
52080W        W44004  33.712  22.235  52.410
52081W        W44005   7.771  27.745  52.898
52082W        W44006   5.751  23.716  51.989
52083W        W44007  14.275  35.703  53.328
52084W        W44008   1.787  41.186  50.141
52085W        W44009  28.230  23.725  53.778
52086W        W44010  39.222   5.243  52.419
52087W        W44011  42.712  27.730  51.068
52088W        W44012  33.222  22.746  52.416
52089W        W44013  30.738  16.734  52.880
52090W        W44014   6.251  28.713  51.976
52091W        W44015  46.220  12.241  50.157
52092W        W44016  24.748  11.764  51.989
52093W        W44017  40.191   6.263  51.037
52094W        W44018  11.761  43.224  52.410
52095W        W44019  47.707   4.268  50.165
52096W        W44020  22.718  43.702  49.700
52097W        W44021  47.219  28.746  52.860
52098W        W44022  32.703  20.751  51.524
52099W        W44023  15.237  41.197  50.616
52100W        W44024  41.714  12.739  50.164
52101W        W44025  31.741  10.242  50.579
52102W        W44026  16.252   4.260  52.417
52103W        W44027  48.216  16.771  51.954
52104W        W44028  21.718  45.714  50.621
52105W        W44029   9.282  48.184  51.510
52106W        W44030  35.241  47.711  53.777
52107W        W44031  15.748  23.243  52.445
52108W        W44032  12.245  42.710  51.040
52109W        W44033  33.220   0.291  51.077
52110W        W44034  12.758  32.710  52.408
52111W        W44035  42.702  13.261  52.444
52112W        W44036  41.217  23.753  49.684
52113W        W44037  40.228  43.189  51.964
52114W        W44038  40.227   9.261  50.154
52115W        W44039  27.218   5.284  50.616
52116W        W44040  16.250  14.251  53.322
52117W        W44041   8.751   9.282  53.786
52118W        W44042  14.726  44.678  50.122
52119W        W44043  34.712  11.756  53.360
52120W        W44044  29.241  12.273  51.950
52121W        W44045  38.225  27.239  51.952
52122W        W44046  11.251  48.173  50.146
52123W        W44047   1.767  29.231  52.436
52124W        W44048   6.271  45.185  50.134
52125W        W44049  22.734  43.692  53.776
52126W        W44050  30.744  34.211  53.358
52127W        W44051  45.684   4.253  51.050
52128W        W44052  41.713  46.721  50.136
52129W        W44053   7.241   5.274  49.675
52130W        W44054  39.201  26.709  52.447
52131W        W44055  34.726  30.734  52.427
52132W        W44056   5.781  27.712  51.953
52133W        W44057  47.215  21.243  49.685
52134W        W44058   2.748  34.740  52.439
52135W        W44059  41.206  29.205  51.058
52136W        W44060  40.228   4.281  51.529
52137W        W44061  41.217  18.767  53.349
52138W        W44062  47.717  46.187  49.679
52139W        W44063  35.222  43.222  50.584
52140W        W44064  36.233   9.736  50.125
52141W        W44065   9.779  47.210  50.141
52142W        W44066  42.208  25.221  50.599
52143W        W44067  40.719  43.214  51.526
52144W        W44068  18.733   7.738  49.708
52145W        W44069  24.725  41.701  51.509
52146W        W44070  41.691  44.182  51.531
52147W        W44071  38.224  35.726  51.499
52148W        W44072  16.239  38.204  51.529
52149W        W44073  36.211   7.286  52.896
52150W        W44074  36.717  36.195  50.592
52151W        W44075   2.281   0.768  51.046
52152W        W44076  19.723  12.733  51.051
52153W        W44077  31.245  24.753  53.786
52154W        W44078  35.702  13.251  49.669
52155W        W44079  15.762  15.244  50.143
52156W        W44080  35.199  11.773  50.131
52157W        W44081   6.266  41.718  53.780
52158W        W44082  11.242  36.704  50.136
52159W        W44083  48.205  34.227  51.042
52160W        W44084   2.286  26.249  50.595
52161W        W44085  26.230   8.280  52.885
52162W        W44086  42.222  45.695  51.502
52163W        W44087  22.217   6.266  51.492
52164W        W44088  38.705   5.789  53.807
52165W        W44089  37.230  36.222  53.343
52166W        W44090  19.267  47.218  51.060
52167W        W44091  29.242   2.768  51.985
52168W        W44092  37.711   5.743  53.776
52169W        W44093  45.180  36.737  53.814
52170W        W44094  30.247  11.254  52.894
52171W        W44095  31.718  46.199  51.987
52172W        W44096  30.234   5.246  51.972
52173W        W44097   1.796  13.774  53.815
52174W        W44098  25.254  38.193  49.679
52175W        W44099  32.733  42.695  53.807
52176W        W44100  45.197  22.730  51.516
52177W        W44101  38.718   8.284  51.983
52178W        W44102  28.250  42.228  51.962
52179W        W44103  43.689  44.180  49.706
52180W        W44104  23.716  40.188  50.612
52181W        W44105  25.220  13.761  51.060
52182W        W44106  30.700   7.786  49.698
52183W        W44107  16.750  27.720  53.789
52184W        W44108  24.719  35.695  51.053
52185W        W44109   0.260  44.699  52.886
52186W        W44110   0.791  46.708  51.958
52187W        W44111   8.748   1.288  50.595
52188W        W44112  28.750  26.223  51.492
52189W        W44113  20.242  46.211  52.872
52190W        W44114   8.259  38.688  50.154
52191W        W44115  28.748   6.772  51.990
52192W        W44116  25.742  32.715  52.439
52193W        W44117  35.726  16.252  51.961
52194W        W44118  29.231  18.763  50.587
52195W        W44119  30.246  25.722  51.506
52196W        W44120  10.235  10.771  49.694
52197W        W44121  45.683  41.686  52.406
52198W        W44122   0.289  10.755  52.417
52199W        W44123  19.237  18.268  51.056
52200W        W44124  29.226   0.769  52.448
52201W        W44125  34.194  29.716  50.149
52202W        W44126   1.270   4.779  49.693
52203W        W44127  39.214  29.203  52.895
52204W        W44128  46.699  31.201  51.529
52205W        W44129  39.218  41.722  53.321
52206W        W44130   4.782  35.224  50.141
52207W        W44131   5.278  34.728  53.816
52208W        W44132  25.235   1.778  49.670
52209W        W44133  20.750   8.736  53.347
52210W        W44134  45.214   6.255  53.361
52211W        W44135  36.699   5.762  49.665
52212W        W44136  33.237  12.730  52.903
52213W        W44137  40.202   0.279  52.876
52214W        W44138  29.713   0.250  49.689
52215W        W44139  39.232  17.250  52.897
52216W        W44140  33.712  18.764  51.034
52217W        W44141   8.782  30.216  51.498
52218W        W44142  13.247   3.265  50.129
52219W        W44143  28.251  12.273  49.703
52220W        W44144  35.200  14.746  50.588
52221W        W44145  19.257  48.207  50.153
52222W        W44146   3.285  11.254  51.951
52223W        W44147  45.220  39.730  51.967
52224W        W44148  39.709  21.218  51.042
52225W        W44149   3.747  40.202  51.947
52226W        W44150  19.719  14.763  50.162
52227W        W44151  12.246  23.256  50.152
52228W        W44152  19.750  16.229  51.975
52229W        W44153   6.762  34.713  51.496
52230W        W44154  46.210   0.753  51.498
52231W        W44155  25.739  15.726  51.513
52232W        W44156  14.248  44.719  49.696
52233W        W44157   7.768  24.228  52.860
52234W        W44158   5.268  22.732  51.973
52235W        W44159  38.707  48.187  52.870
52236W        W44160  32.739  41.202  51.494
52237W        W44161  27.228  24.240  51.491
52238W        W44162   9.251  10.249  49.709
52239W        W44163  36.739   3.789  52.440
52240W        W44164   5.242  37.737  51.509
52241W        W44165  31.739   7.268  50.166
52242W        W44166   2.296  31.716  53.773
52243W        W44167  11.762  31.726  53.777
52244W        W44168  46.703  38.721  51.521
52245W        W44169  34.237  13.733  53.797
52246W        W44170  35.231   7.753  52.447
52247W        W44171   6.759  22.758  53.804
52248W        W44172  18.250  47.199  53.790
52249W        W44173  12.772  42.192  52.891
52250W        W44174  19.223  41.696  51.986
52251W        W44175  12.250  12.269  51.055
52252W        W44176   2.249   1.272  51.955
52253W        W44177  44.682  21.219  51.975
52254W        W44178  10.279   5.766  51.078
52255W        W44179  42.722  26.754  53.795
52256W        W44180  40.725  44.722  52.418
52257W        W44181   3.255  36.233  50.606
52258W        W44182   5.753  34.707  53.327
52259W        W44183  17.751   8.738  53.359
52260W        W44184  15.761  41.693  53.808
52261W        W44185   1.782   0.255  53.796
52262W        W44186  36.203  30.239  51.948
52263W        W44187   7.263  17.723  52.904
52264W        W44188  40.191  37.189  52.431
52265W        W44189  13.263  34.229  53.772
52266W        W44190  25.212   5.268  53.777
52267W        W44191  33.202   5.779  51.527
52268W        W44192  10.269  44.226  53.327
52269W        W44193  26.731  27.242  53.805
52270W        W44194  28.716   5.751  52.427
52271W        W44195  44.723  33.224  50.593
52272W        W44196  45.215  30.244  50.578
52273W        W44197  24.743  19.727  52.442
52274W        W44198  24.238   2.770  53.356
52275W        W44199  39.732   8.272  49.666
52276W        W44200   8.272  44.181  49.667
52277W        W44201  42.704  41.214  49.695
52278W        W44202   3.764  11.776  52.865
52279W        W44203  15.761  33.737  50.609
52280W        W44204  19.757  15.230  52.884
52281W        W44205   7.279  20.231  49.705
52282W        W44206  23.727  32.219  51.050
52283W        W44207  37.697  19.762  49.704
52284W        W44208  34.694  31.220  52.902
52285W        W44209  38.236  32.223  52.863
52286W        W44210   2.766  42.222  53.774
52287W        W44211   5.279  25.210  49.675
52288W        W44212  37.207  19.763  51.508
52289W        W44213  30.710  43.228  52.863
52290W        W44214  31.731  11.237  51.063
52291W        W44215  18.754   6.287  53.793
52292W        W44216  29.715  18.746  52.434
52293W        W44217   7.786   6.755  53.343
52294W        W44218  48.195  32.207  49.667
52295W        W44219  46.178   5.257  50.152
52296W        W44220  17.756  32.213  52.860
52297W        W44221  42.720  25.247  49.674
52298W        W44222   0.776  34.711  51.959
52299W        W44223  45.723  30.218  49.704
52300W        W44224   3.788  43.698  52.434
52301W        W44225  18.257   7.250  53.333
52302W        W44226  33.704   6.762  53.342
52303W        W44227  12.276  21.250  52.432
52304W        W44228  16.749  18.223  49.684
52305W        W44229  34.217  32.724  53.781
52306W        W44230   4.258  34.196  52.890
52307W        W44231  25.242  20.240  49.679
52308W        W44232  46.694   0.781  53.808
52309W        W44233  20.251  18.231  51.035
52310W        W44234  39.694  30.248  49.693
52311W        W44235  13.240  24.220  51.498
52312W        W44236  35.226  37.721  49.675
52313W        W44237  46.205  45.222  51.496
52314W        W44238  40.701  45.704  49.705
52315W        W44239  27.253  43.218  53.779
52316W        W44240  44.225  47.173  52.893
52317W        W44241  47.682  37.722  53.780
52318W        W44242  12.248  36.727  50.597
52319W        W44243   0.291  20.723  53.773
52320W        W44244  37.706  11.753  51.524
52321W        W44245  30.707   2.771  49.684
52322W        W44246  11.233  45.218  52.442
52323W        W44247  43.696   0.755  51.061
52324W        W44248  21.262   2.781  50.584
52325W        W44249  35.230  18.732  50.593
52326W        W44250  31.724  42.698  51.495
52327W        W44251  20.219   9.759  50.587
52328W        W44252  36.199  22.237  53.352
52329W        W44253  34.212  40.196  52.897
52330W        W44254  36.209  24.728  50.143
52331W        W44255  46.711  18.265  52.433
52332W        W44256  12.737   6.780  53.318
52333W        W44257  20.731   0.298  53.778
52334W        W44258  11.279   5.781  51.987
52335W        W44259   9.782  17.746  52.405
52336W        W44260  42.208  20.754  52.873
52337W        W44261  47.203   6.279  53.337
52338W        W44262  41.703  29.713  50.588
52339W        W44263   3.246  45.705  53.355
52340W        W44264  11.250  46.199  52.425
52341W        W44265  33.217   6.264  51.985
52342W        W44266  19.228   8.282  51.054
52343W        W44267  48.202  40.696  52.407
52344W        W44268  37.236  25.746  50.134
52345W        W44269  30.705  12.256  52.442
52346W        W44270  46.686  25.227  53.361
52347W        W44271  42.187  47.198  53.804
52348W        W44272   6.742  35.727  51.531
52349W        W44273  46.695  46.700  51.981
52350W        W44274  42.221  31.734  53.775
52351W        W44275  14.247  21.723  49.675
52352W        W44276  35.207  18.749  52.883
52353W        W44277  32.711  45.206  49.698
52354W        W44278  35.240   9.250  52.413
52355W        W44279  44.213  11.768  51.516
52356W        W44280  34.231   4.253  50.151
52357W        W44281  45.225  36.197  50.606
52358W        W44282  36.218  36.209  52.421
52359W        W44283  46.192  40.229  52.447
52360W        W44284  43.710  17.240  51.070
52361W        W44285  42.221  20.251  53.336
52362W        W44286  32.708  26.209  52.433
52363W        W44287  13.747  21.733  51.522
52364W        W44288   4.266  19.753  53.316
52365W        W44289  35.240  13.235  51.491
52366W        W44290  43.707  46.706  53.798
52367W        W44291   2.764  24.740  53.779
52368W        W44292  28.232   3.254  52.420
52369W        W44293  27.739  38.708  51.071
52370W        W44294   2.257  13.251  51.070
52371W        W44295  12.246  21.242  52.865
52372W        W44296   6.279  41.685  50.121
52373W        W44297  37.723  27.744  51.072
52374W        W44298  24.231   2.748  49.690
52375W        W44299  29.244   0.786  50.127
52376W        W44300   7.781   4.758  51.948
52377W        W44301  26.246  32.713  49.668
52378W        W44302  43.679   5.760  51.948
52379W        W44303  16.263  47.684  51.067
52380W        W44304   0.271   4.293  53.804
52381W        W44305  21.724  28.715  51.959
52382W        W44306   6.753  23.724  51.061
52383W        W44307   0.761  19.731  50.150
52384W        W44308  22.258  40.185  50.622
52385W        W44309  16.729  26.742  50.612
52386W        W44310  35.739  15.245  50.166
52387W        W44311  24.239  44.214  52.432
52388W        W44312  43.727  23.231  51.983
52389W        W44313  31.744  45.181  50.157
52390W        W44314   5.747  42.200  51.961
52391W        W44315  23.728  18.759  49.705
52392W        W44316  24.242  19.742  49.703
52393W        W44317  18.758  31.733  53.316
52394W        W44318  12.267  11.254  50.149
52395W        W44319  17.228  25.242  53.326
52396W        W44320  30.749  42.200  51.527
52397W        W44321  40.730  46.715  52.861
52398W        W44322  47.707  47.707  53.338
52399W        W44323  10.237  42.705  49.700
52400W        W44324  20.244   5.286  52.434
52401W        W44325  41.699  38.694  53.813
52402W        W44326  37.697  14.737  51.074
52403W        W44327  45.193  40.215  52.864
52404W        W44328   6.274  20.734  53.338
52405W        W44329  19.736  21.739  50.618
52406W        W44330   5.259   1.272  52.421
52407W        W44331  44.220  17.233  52.898
52408W        W44332  25.750  39.191  52.865
52409W        W44333  24.258  33.717  53.813
52410W        W44334  12.760  29.721  52.890
52411W        W44335  25.731  44.182  52.900
52412W        W44336  15.253  21.249  53.785
52413W        W44337  12.731  20.756  51.963
52414W        W44338  32.699  45.205  51.040
52415W        W44339   8.756  34.732  53.817
52416W        W44340  31.718  24.237  52.864
52417W        W44341  18.263  29.746  53.814
52418W        W44342  12.278  26.221  53.334
52419W        W44343  23.253  41.687  51.961
52420W        W44344  20.750  29.249  51.959
52421W        W44345  34.730  47.176  52.431
52422W        W44346  10.758  30.722  49.673
52423W        W44347  24.224  36.191  53.817
52424W        W44348  35.201  14.266  52.447
52425W        W44349  11.776  33.239  50.129
52426W        W44350  20.736  13.745  53.773
52427W        W44351  21.220   4.771  51.523
52428W        W44352  22.749  16.730  51.982
52429W        W44353  10.237  18.262  52.404
52430W        W44354  40.227  44.700  53.326
52431W        W44355  13.230  47.683  53.317
52432W        W44356  18.266  29.733  50.125
52433W        W44357  16.252  31.701  52.403
52434W        W44358  40.210  22.720  51.059
52435W        W44359   7.248  39.189  51.989
52436W        W44360  29.240  37.194  53.807
52437W        W44361  32.722   4.293  52.881
52438W        W44362  24.715  42.205  53.331
52439W        W44363  13.763  12.739  50.134
52440W        W44364  24.248  44.192  53.793
52441W        W44365   4.273  44.707  53.341
52442W        W44366  19.733   5.276  53.319
52443W        W44367  28.237  12.765  50.122
52444W        W44368  19.761  22.742  53.795
52445W        W44369  42.714  42.188  51.958
52446W        W44370   5.275  21.733  52.426
52447W        W44371  22.730  28.732  49.701
52448W        W44372  10.746  44.683  49.684
52449W        W44373  16.232   7.783  49.682
52450W        W44374  25.234   5.752  53.352
52451W        W44375   6.782  32.720  49.695
52452W        W44376  44.179   5.783  51.503
52453W        W44377   5.774  37.207  51.535
52454W        W44378  19.220  19.263  50.165
52455W        W44379  17.270  35.735  53.333
52456W        W44380  10.260  19.736  50.124
52457W        W44381   2.293   7.241  50.145
52458W        W44382  13.239   6.772  53.333
52459W        W44383  17.262  32.740  51.955
52460W        W44384  23.243  17.758  53.333
52461W        W44385  46.179  14.274  51.507
52462W        W44386   9.249   2.250  51.057
52463W        W44387  29.246  19.722  51.036
52464W        W44388  25.734  25.216  49.687
52465W        W44389  13.754   7.250  53.354
52466W        W44390  16.266  39.192  51.493
52467W        W44391  41.217  11.737  49.690
52468W        W44392  39.733  11.758  51.961
52469W        W44393  23.729  10.735  53.797
52470W        W44394  28.711  39.707  50.619
52471W        W44395  40.199  22.737  51.973
52472W        W44396   5.275   8.279  49.670
52473W        W44397  34.242   9.272  51.528
52474W        W44398  32.224  31.742  52.436
52475W        W44399  45.705  30.217  53.790
52476W        W44400  22.221  12.768  53.795
52477W        W44401  28.221  21.227  53.361
52478W        W44402   2.753   9.272  49.695
52479W        W44403  28.225  20.232  51.052
52480W        W44404  25.239  32.208  52.873
52481W        W44405  23.256  43.206  53.325
52482W        W44406   1.296  14.247  51.074
52483W        W44407  41.200  20.245  51.040
52484W        W44408  27.231  26.735  53.787
52485W        W44409   7.284  40.724  50.584
52486W        W44410  21.265  20.228  51.071
52487W        W44411  19.737  26.213  51.043
52488W        W44412  33.207  26.720  51.979
52489W        W44413  24.214  40.700  52.448
52490W        W44414  43.711   0.255  50.580
52491W        W44415   3.255  41.682  50.619
52492W        W44416  37.213  35.738  52.889
52493W        W44417  18.748  18.237  51.496
52494W        W44418  27.228  27.744  51.983
52495W        W44419  39.230   1.774  49.707
52496W        W44420  34.207   8.285  49.664
52497W        W44421  33.214  37.730  53.337
52498W        W44422   2.273  31.708  50.587
52499W        W44423  45.208  46.696  51.988
52500W        W44424   1.252  29.232  50.616
52501W        W44425  44.702  36.706  51.986
52502W        W44426   5.245  26.240  50.609
52503W        W44427  32.246  47.693  50.142
52504W        W44428   5.245  38.722  52.888
52505W        W44429  38.191  32.227  51.500
52506W        W44430   7.258   8.769  51.497
52507W        W44431  45.224  36.211  51.531
52508W        W44432  17.249  18.742  52.903
52509W        W44433  42.180   4.249  52.406
52510W        W44434   5.784  33.199  52.446
52511W        W44435   1.292  41.701  50.609
52512W        W44436  18.732   9.283  53.339
52513W        W44437  42.707  15.245  51.968
52514W        W44438  24.244  35.225  51.057
52515W        W44439  23.711  12.267  50.163
52516W        W44440  38.701  16.246  53.813
52517W        W44441  25.717  41.182  50.592
52518W        W44442  34.715  45.182  51.969
52519W        W44443  43.713  45.688  50.617
52520W        W44444   5.775  43.219  51.958
52521W        W44445  24.736  44.691  50.582
52522W        W44446   0.275  24.255  53.329
52523W        W44447  24.251  47.207  51.522
52524W        W44448  17.240  36.202  52.441
52525W        W44449  10.266  32.697  51.516
52526W        W44450  45.689  27.219  53.802
52527W        W44451  13.774   6.241  52.870
52528W        W44452  35.712   9.759  51.073
52529W        W44453   4.281  24.739  52.418
52530W        W44454  47.677  16.723  49.668
52531W        W44455   9.743  48.182  53.780
52532W        W44456  45.201  25.727  52.864
52533W        W44457   0.287  47.705  52.877
52534W        W44458  48.212  16.772  50.128
52535W        W44459   8.760  15.725  49.672
52536W        W44460   9.265  28.744  50.603
52537W        W44461  18.720  14.746  52.875
52538W        W44462   0.252  30.718  51.078
52539W        W44463  36.708  30.246  53.342
52540W        W44464  26.246  34.732  51.503
52541W        W44465  46.182   4.760  51.958
52542W        W44466   8.737  35.239  49.678
52543W        W44467  38.211  48.208  51.513
52544W        W44468  45.707   8.260  50.160
52545W        W44469   4.754   7.255  50.121
52546W        W44470  41.696  17.757  50.579
52547W        W44471  48.212   4.743  49.694
52548W        W44472  33.721  31.739  51.041
52549W        W44473  29.723  30.715  50.146
52550W        W44474  35.210  21.758  50.145
52551W        W44475  24.211  47.708  53.788
52552W        W44476   8.753   3.271  53.336
52553W        W44477  37.711  15.248  52.890
52554W        W44478  16.749  27.734  50.164
52555W        W44479  44.691  40.725  50.164
52556W        W44480  36.694  16.270  49.710
52557W        W44481  44.679  23.261  50.145
52558W        W44482  47.686  16.749  52.895
52559W        W44483  24.222  39.203  51.055
52560W        W44484  47.216  30.746  52.865
52561W        W44485   0.265  31.226  52.878
52562W        W44486  46.719  33.241  53.775
52563W        W44487   1.276  28.742  53.777
52564W        W44488   7.759  44.700  53.359
52565W        W44489  40.205  22.759  53.349
52566W        W44490  37.727  31.702  50.605
52567W        W44491  21.228  47.699  50.597
52568W        W44492  32.735  27.742  50.147
52569W        W44493  47.697   5.762  53.332
52570W        W44494   2.772  26.236  52.409
52571W        W44495  32.228  25.227  53.338
52572W        W44496   6.777  42.689  53.344
52573W        W44497  12.247  31.733  49.702
52574W        W44498  28.224  26.739  53.361
52575W        W44499  27.718  42.720  49.679
52576W        W44500  48.217   6.283  51.525
52577W        W44501  10.763   2.754  50.610
52578W        W44502   9.246  41.714  52.439
52579W        W44503  44.217  17.765  53.792
52580W        W44504   8.275   7.283  51.067
52581W        W44505   3.267   5.778  50.143
52582W        W44506  17.736   8.748  53.774
52583W        W44507  15.255  32.700  53.797
52584W        W44508  23.745  25.213  52.898
52585W        W44509  11.767  44.710  53.338
52586W        W44510   9.773  26.246  53.324
52587W        W44511  15.267   8.751  49.671
52588W        W44512  48.184   5.749  51.060
52589W        W44513  29.743  28.206  49.669
52590W        W44514  32.233  38.216  53.359
52591W        W44515   4.759  43.194  53.798
52592W        W44516  21.218  32.225  51.972
52593W        W44517   5.751  14.768  53.319
52594W        W44518  33.712  47.182  51.052
52595W        W44519  17.766  24.225  52.878
52596W        W44520  33.206  13.755  51.035
52597W        W44521   3.248  14.237  50.144
52598W        W44522  14.232  35.723  51.978
52599W        W44523   6.777   4.782  50.583
52600W        W44524  36.209  13.775  51.071
52601W        W44525   8.779  41.209  51.971
52602W        W44526   3.764  31.225  52.411
52603W        W44527   8.763  24.725  51.983
52604W        W44528  26.233   1.786  52.436
52605W        W44529   0.261  11.751  53.335
52606W        W44530  21.734  47.216  53.816
52607W        W44531  15.725  22.248  51.530
52608W        W44532   1.769  19.729  53.347
52609W        W44533  20.752  40.713  51.979
52610W        W44534   7.280   5.758  51.061
52611W        W44535  15.725  11.755  51.528
52612W        W44536  25.211  36.714  53.316
52613W        W44537  35.731  28.745  51.057
52614W        W44538  47.187  38.725  50.605
52615W        W44539  43.222  26.748  49.680
52616W        W44540   8.272   5.245  52.875
52617W        W44541  20.228  22.714  50.611
52618W        W44542   3.250  37.708  51.951
52619W        W44543   0.259   0.781  52.873
52620W        W44544  42.217  21.243  51.498
52621W        W44545  44.184  25.217  50.597
52622W        W44546  25.242  41.220  53.356
52623W        W44547  39.215  25.218  49.694
52624W        W44548  21.244  38.217  51.041
52625W        W44549  11.239   5.252  53.788
52626W        W44550  10.270  37.722  53.340
52627W        W44551   4.263  31.205  51.067
52628W        W44552  13.770   3.749  53.316
52629W        W44553  36.738  31.246  50.147
52630W        W44554  17.224  10.249  50.165
52631W        W44555  29.739   9.270  53.321
52632W        W44556  42.713  15.234  53.321
52633W        W44557  13.269   4.255  53.808
52634W        W44558  27.212  17.736  51.045
52635W        W44559  38.228  21.238  51.989
52636W        W44560  40.233  14.737  50.606
52637W        W44561   2.272  39.711  53.322
52638W        W44562  25.211  38.734  49.689
52639W        W44563  43.711  34.219  53.342
52640W        W44564   9.248  43.227  49.686
52641W        W44565  15.261  36.694  53.789
52642W        W44566  24.742  23.735  51.973
52643W        W44567   9.776   0.287  50.606
52644W        W44568  26.241  38.718  53.328
52645W        W44569  21.241  43.203  50.137
52646W        W44570  20.252  40.212  51.955
52647W        W44571  47.702  10.250  52.864
52648W        W44572  12.763  13.261  51.492
52649W        W44573   5.248  14.749  50.591
52650W        W44574  17.223   3.757  53.772
52651W        W44575   7.783  37.699  49.665
52652W        W44576  38.708  16.742  49.682
52653W        W44577  33.700  12.274  53.320
52654W        W44578  35.724  41.688  52.861
52655W        W44579   7.781   9.778  49.703
52656W        W44580  44.712  19.748  50.609
52657W        W44581  22.761   1.279  52.892
52658W        W44582  34.210  10.247  52.865
52659W        W44583  39.199  16.231  50.165
52660W        W44584  15.255  25.740  52.891
52661W        W44585   8.248  31.204  53.776
52662W        W44586  46.212  43.702  51.037
52663W        W44587  36.738  46.179  49.689
52664W        W44588   5.787  16.751  53.343
52665W        W44589  15.763   4.784  52.418
52666W        W44590  18.738  28.721  51.047
52667W        W44591  31.211   7.249  49.706
52668W        W44592  24.244   6.253  50.158
52669W        W44593  46.713   2.788  53.357
52670W        W44594   1.293  36.201  51.511
52671W        W44595   0.297  42.694  52.423
52672W        W44596  41.204   8.768  51.524
52673W        W44597  46.185   8.758  50.143
52674W        W44598  28.749  47.219  53.777
52675W        W44599  45.210  42.723  49.672
52676W        W44600  14.268  15.269  49.675
52677W        W44601  43.683  37.711  51.077
52678W        W44602  17.227  19.236  51.982
52679W        W44603  15.274  14.763  51.067
52680W        W44604  10.266   8.254  51.076
52681W        W44605  12.744  16.230  51.495
52682W        W44606  40.230  44.684  53.786
52683W        W44607   9.755  14.231  51.956
52684W        W44608  24.719  26.221  52.426
52685W        W44609  11.269  29.243  50.591
52686W        W44610  20.219   8.783  50.122
52687W        W44611  21.230  32.731  51.509
52688W        W44612  26.753   8.238  50.603
52689W        W44613   5.764   8.775  49.671
52690W        W44614  22.234   8.272  51.053
52691W        W44615  35.221  19.251  53.324
52692W        W44616  42.683  27.212  51.066
52693W        W44617  25.243   0.257  53.350
52694W        W44618  32.732  16.244  51.064
52695W        W44619  39.700  22.215  51.042
52696W        W44620  22.720   8.240  51.971
52697W        W44621  32.731  13.256  51.500
52698W        W44622   8.781   7.749  51.533
52699W        W44623  40.208  36.708  51.956
52700W        W44624  10.267  37.707  51.510
52701W        W44625  45.718  32.743  52.433
52702W        W44626  27.722  33.238  49.680
52703W        W44627  12.755  46.713  50.149
52704W        W44628  38.709  45.197  53.773
52705W        W44629  37.234  32.225  51.063
52706W        W44630  31.209  25.252  51.525
52707W        W44631   0.256  43.192  50.582
52708W        W44632   9.263  10.768  50.581
52709W        W44633  23.219  21.217  52.442
52710W        W44634   3.249  47.180  51.987
52711W        W44635  31.742   3.752  53.317
52712W        W44636  46.674  48.215  52.890
52713W        W44637  20.224  47.180  52.879
52714W        W44638  21.225  47.199  50.152
52715W        W44639  48.184   8.766  53.317
52716W        W44640  31.723  26.211  51.521
52717W        W44641  12.744  40.731  50.139
52718W        W44642   6.252  47.721  51.959
52719W        W44643  35.208   0.773  51.503
52720W        W44644  18.260  36.717  49.671
52721W        W44645  43.704  24.231  53.791
52722W        W44646  24.254  42.192  53.321
52723W        W44647  42.721   9.758  49.677
52724W        W44648  35.203  48.205  52.412
52725W        W44649  47.211  14.745  52.446
52726W        W44650  32.213  30.725  50.597
52727W        W44651  33.213   6.254  53.336
52728W        W44652  18.246   3.286  53.333
52729W        W44653   6.776  45.208  51.074
52730W        W44654  45.217  43.185  53.785
52731W        W44655  38.713   2.269  53.807
52732W        W44656  44.183  35.693  53.322
52733W        W44657  25.736  40.223  53.808
52734W        W44658  32.228   6.251  49.667
52735W        W44659  37.203  10.262  49.707
52736W        W44660  20.242   3.779  52.407
52737W        W44661  16.252  39.196  51.046
52738W        W44662   2.275  37.232  49.672
52739W        W44663  13.746  24.243  52.447
52740W        W44664  36.731  36.697  53.781
52741W        W44665  18.257  23.729  52.431
52742W        W44666  26.226  41.716  53.348
52743W        W44667  22.744  28.721  51.515
52744W        W44668  35.702  12.275  51.981
52745W        W44669  20.244  18.757  51.969
52746W        W44670   9.750   4.250  53.323
52747W        W44671  21.720  33.716  52.416
52748W        W44672   6.785  12.734  52.441
52749W        W44673  16.225  21.726  50.124
52750W        W44674  41.721  25.713  50.165
52751W        W44675  11.754  27.242  51.987
52752W        W44676  21.761  39.702  51.968
52753W        W44677   5.743  33.738  52.425
52754W        W44678  43.710   8.279  51.072
52755W        W44679   0.294  48.192  52.403
52756W        W44680  15.251   6.744  49.665
52757W        W44681  28.717  45.688  53.797
52758W        W44682  45.706  45.189  50.613
52759W        W44683  10.266  46.702  49.672
52760W        W44684  27.712   9.783  50.126
52761W        W44685   6.756   4.772  50.143
52762W        W44686  47.702  23.715  50.161
52763W        W44687  33.704   8.774  50.150
52764W        W44688   5.246  11.738  50.601
52765W        W44689  26.245   7.241  53.775
52766W        W44690  33.210   1.265  51.045
52767W        W44691  35.731  48.202  51.057
52768W        W44692  14.265  15.747  50.150
52769W        W44693  24.737  13.753  52.413
52770W        W44694  46.682  42.191  51.048
52771W        W44695  31.732  44.227  51.055
52772W        W44696   9.235  11.763  52.860
52773W        W44697  15.225  16.236  51.061
52774W        W44698   2.793  24.743  52.876
52775W        W44699  40.210   7.265  53.324
52776W        W44700  43.197   6.260  50.578
52777W        W44701  30.720  27.211  53.805
52778W        W44702  26.255  27.239  52.436
52779W        W44703  31.747  32.201  49.709
52780W        W44704  35.728  36.207  52.901
52781W        W44705  47.684  19.720  52.443
52782W        W44706  34.693  18.230  51.977
52783W        W44707  29.738   7.780  50.616
52784W        W44708  29.727  45.698  50.127
52785W        W44709  39.204  32.206  53.335
52786W        W44710  20.757  42.191  53.354
52787W        W44711  27.229  32.214  53.341
52788W        W44712  31.742  15.256  52.892
52789W        W44713   9.761  36.696  51.949
52790W        W44714   3.753  33.243  51.063
52791W        W44715  38.736  19.267  50.584
52792W        W44716  35.695  12.265  50.584
52793W        W44717   4.756  31.735  51.983
52794W        W44718   7.741  21.763  51.522
52795W        W44719  28.226  12.750  50.590
52796W        W44720  34.702  25.226  51.058
52797W        W44721  34.699  13.236  50.163
52798W        W44722  27.752  16.731  53.321
52799W        W44723  34.734  41.222  53.809
52800W        W44724  26.208  36.698  50.620
52801W        W44725   8.243  27.750  51.048
52802W        W44726  42.706  15.773  53.790
52803W        W44727  14.736   0.258  51.963
52804W        W44728   6.744  33.212  53.332
52805W        W44729   6.772  40.693  53.794
52806W        W44730  37.194  37.710  52.861
52807W        W44731  10.277  12.773  52.900
52808W        W44732  31.708  29.719  53.323
52809W        W44733  39.212   2.283  53.798
52810W        W44734  16.242  44.701  50.580
52811W        W44735  29.225  16.732  52.404
52812W        W44736  45.693  11.732  53.798
52813W        W44737   1.780  26.252  53.817
52814W        W44738   7.766  36.239  50.611
52815W        W44739  29.232  26.225  53.344
52816W        W44740   8.741  34.224  51.517
52817W        W44741  47.692  47.716  51.980
52818W        W44742   2.775  41.217  49.684
52819W        W44743  29.729  35.219  51.534
52820W        W44744  39.192  14.262  51.494
52821W        W44745  23.250  36.690  53.353
52822W        W44746  29.243  30.232  51.525
52823W        W44747  13.271  20.747  53.346
52824W        W44748  40.727  28.707  49.669
52825W        W44749  10.745  48.199  51.069
52826W        W44750  32.218  18.766  52.896
52827W        W44751  29.216  22.218  50.137
52828W        W44752  26.745   5.769  51.066
52829W        W44753  35.235  21.755  52.870
52830W        W44754  31.734  11.765  50.139
52831W        W44755  19.260   6.246  51.953
52832W        W44756  31.202  35.707  53.793
52833W        W44757  39.203  12.732  51.969
52834W        W44758  27.717   7.754  51.961
52835W        W44759  39.703  16.255  51.502
52836W        W44760  16.236  22.714  50.591
52837W        W44761  32.700  41.726  49.675
52838W        W44762  25.725  32.202  49.680
52839W        W44763   4.247  36.707  50.151
52840W        W44764   6.770  32.226  51.052
52841W        W44765  22.239  37.716  51.990
52842W        W44766  31.230   3.784  51.519
52843W        W44767  41.183  40.198  53.817
52844W        W44768  32.709   2.289  51.074
52845W        W44769   6.769  43.211  53.793
52846W        W44770  37.698  40.232  50.597
52847W        W44771  29.714  10.777  49.695
52848W        W44772  27.225  11.281  53.785
52849W        W44773  12.773  42.717  51.947
52850W        W44774   7.744  26.714  50.605
52851W        W44775  22.247  26.214  52.417
52852W        W44776  20.752  32.723  51.531
52853W        W44777  47.672  27.723  53.788
52854W        W44778  28.715   0.768  51.516
52855W        W44779  41.683  29.242  52.433
52856W        W44780  46.699  27.232  51.982
52857W        W44781  45.689  37.234  52.405
52858W        W44782  24.725  17.265  53.783
52859W        W44783  45.699   9.270  53.782
52860W        W44784   4.285  48.210  53.346
52861W        W44785   1.750   6.242  51.964
52862W        W44786  22.747  38.225  53.349
52863W        W44787  22.745   3.283  53.343
52864W        W44788  11.777  44.682  51.506
52865W        W44789   4.747  40.692  53.808
52866W        W44790  18.225  20.219  50.144
52867W        W44791  29.247  36.716  51.045
52868W        W44792   4.771  33.208  51.962
52869W        W44793  17.258  40.223  49.681
52870W        W44794  46.206  19.223  51.961
52871W        W44795  17.771  17.259  52.889
52872W        W44796  16.231  32.222  51.515
52873W        W44797  29.732  24.257  50.587
52874W        W44798  45.197  39.234  50.590
52875W        W44799  12.270  43.687  49.707
52876W        W44800   5.778  28.251  51.523
52877W        W44801  32.223  35.230  49.677
52878W        W44802  25.727  43.713  50.604
52879W        W44803  33.200   3.770  51.957
52880W        W44804  25.245  17.256  49.687
52881W        W44805   8.264  20.226  51.037
52882W        W44806  16.770   1.266  51.499
52883W        W44807  28.240   1.750  50.607
52884W        W44808  14.241  33.718  52.883
52885W        W44809  17.726  26.726  52.413
52886W        W44810  27.731  47.711  51.072
52887W        W44811  45.683  44.684  52.439
52888W        W44812  21.217  38.196  50.140
52889W        W44813  44.677  24.745  49.702
52890W        W44814  45.723  14.744  52.422
52891W        W44815  31.708   4.263  49.709
52892W        W44816  43.197   3.767  53.790
52893W        W44817  14.749  21.748  51.493
52894W        W44818  21.731  36.224  49.687
52895W        W44819  28.740  39.717  49.678
52896W        W44820   0.289  32.231  52.866
52897W        W44821  39.718  29.244  53.785
52898W        W44822   0.795  26.244  51.949
52899W        W44823  29.223  10.263  50.588
52900W        W44824  11.746  42.215  51.495
52901W        W44825  46.688  28.736  49.673
52902W        W44826  20.742  35.731  50.592
52903W        W44827  29.749  37.235  51.507
52904W        W44828  24.231  45.219  53.320
52905W        W44829  23.227  39.709  50.159
52906W        W44830  43.725  11.742  51.074
52907W        W44831  30.709  31.199  51.975
52908W        W44832  43.693  39.707  50.584
52909W        W44833   4.269  23.228  51.502
52910W        W44834  47.220  35.217  52.435
52911W        W44835  42.202  10.757  51.070
52912W        W44836  42.227  12.734  51.492
52913W        W44837  47.691   0.791  51.490
52914W        W44838  37.212   3.260  51.949
52915W        W44839  15.768  43.218  50.151
52916W        W44840  45.688  23.745  51.055
52917W        W44841   0.763  20.765  51.961
52918W        W44842  19.243  21.764  51.501
52919W        W44843  37.712  45.199  52.421
52920W        W44844  30.222   7.239  50.614
52921W        W44845  38.232  20.246  53.346
52922W        W44846  40.214  26.243  50.153
52923W        W44847  22.228  33.708  50.127
52924W        W44848  31.703  19.245  52.431
52925W        W44849  40.695  13.750  51.954
52926W        W44850  10.280  43.727  50.152
52927W        W44851  20.218  37.699  49.679
52928W        W44852   0.755  20.749  52.865
52929W        W44853  21.738  38.709  50.155
52930W        W44854  23.240  46.712  53.781
52931W        W44855  32.230  29.746  49.665
52932W        W44856  28.223   3.277  50.137
52933W        W44857   0.253  23.714  51.951
52934W        W44858  48.175  14.247  51.974
52935W        W44859  17.765  45.185  52.426
52936W        W44860  43.198  25.712  50.612
52937W        W44861  44.713  38.204  49.671
52938W        W44862  44.192  33.238  50.601
52939W        W44863  39.720  19.720  50.130
52940W        W44864  26.256  36.731  49.707
52941W        W44865  14.755  23.220  51.984
52942W        W44866  32.229  42.685  49.669
52943W        W44867  16.224  26.740  53.323
52944W        W44868   8.745  22.721  51.522
52945W        W44869  26.248  20.740  53.348
52946W        W44870  14.257   0.266  52.900
52947W        W44871  41.701  15.738  50.602
52948W        W44872  40.699  11.746  53.802
52949W        W44873  13.741  35.235  49.683
52950W        W44874   2.793  21.225  52.903
52951W        W44875  47.219  15.772  52.407
52952W        W44876  11.276  36.228  51.968
52953W        W44877  36.703  30.241  52.405
52954W        W44878  18.730   9.773  52.414
52955W        W44879  26.725  21.745  50.584
52956W        W44880  29.237  39.186  52.892
52957W        W44881  33.722  46.218  52.874
52958W        W44882  34.196   8.743  50.615
52959W        W44883  38.733  40.722  49.706
52960W        W44884  18.268  11.740  50.165
52961W        W44885  43.726  33.695  49.677
52962W        W44886   2.285   8.777  49.695
52963W        W44887  34.214  26.241  51.965
52964W        W44888  35.217  12.255  49.706
52965W        W44889  16.255  11.275  49.686
52966W        W44890  27.223  31.723  53.334
52967W        W44891  31.211   9.248  49.709
52968W        W44892  16.730  19.740  49.708
52969W        W44893  24.722   4.765  50.143
52970W        W44894  32.210   7.772  51.074
52971W        W44895  43.725   0.768  53.346
52972W        W44896  32.731   9.246  53.786
52973W        W44897  40.198  44.184  49.701
52974W        W44898  21.244  17.239  51.058
52975W        W44899  37.733  44.681  53.321
52976W        W44900  46.195   3.766  50.583
52977W        W44901  15.231   0.283  51.053
52978W        W44902  18.745   5.248  51.954
52979W        W44903  10.777  14.259  53.320
52980W        W44904  36.234  17.256  53.329
52981W        W44905  40.229   6.268  53.781
52982W        W44906  43.222   0.292  53.777
52983W        W44907  14.255  35.227  51.513
52984W        W44908  26.214   2.769  51.977
52985W        W44909   9.280   0.749  52.409
52986W        W44910  45.178  12.242  49.696
52987W        W44911  17.252  32.730  49.688
52988W        W44912  18.237  30.711  53.790
52989W        W44913  37.227   4.763  52.885
52990W        W44914   6.764  35.239  51.036
52991W        W44915   3.774  20.260  52.870
52992W        W44916  12.775  45.686  51.499
52993W        W44917  11.737  30.243  50.603
52994W        W44918  27.206   7.241  51.534
52995W        W44919  28.752   4.747  50.127
52996W        W44920  48.210  32.233  53.318
52997W        W44921  25.212  39.700  51.534
52998W        W44922  43.195  29.234  51.987
52999W        W44923   4.758   2.765  51.071
53000W        W44924  44.197  12.736  53.319
53001W        W44925  42.682   6.256  53.814
53002W        W44926  31.199  38.229  52.434
53003W        W44927  11.743  46.190  51.973
53004W        W44928  20.735  23.213  51.989
53005W        W44929  43.206  43.708  51.992
53006W        W44930  27.232  16.730  49.706
53007W        W44931  21.760  32.199  52.860
53008W        W44932  13.754  39.730  51.508
53009W        W44933  15.743  25.747  52.443
53010W        W44934  17.247  11.253  53.794
53011W        W44935  13.259   5.257  53.793
53012W        W44936  22.725  41.199  53.326
53013W        W44937  33.225  31.741  52.433
53014W        W44938  39.703  47.700  52.905
53015W        W44939  16.264   8.746  52.879
53016W        W44940  11.257  19.744  53.797
53017W        W44941   0.784  36.711  52.428
53018W        W44942   4.786   6.280  51.535
53019W        W44943  46.711  15.755  53.325
53020W        W44944  30.745  19.268  53.349
53021W        W44945  23.743  27.705  52.869
53022W        W44946   2.254  45.720  50.586
53023W        W44947  27.217  42.223  49.683
53024W        W44948  30.201  19.760  50.136
53025W        W44949  34.216  48.185  49.674
53026W        W44950   3.293  21.216  50.615
53027W        W44951  24.740  14.741  51.964
53028W        W44952  46.702  46.179  51.504
53029W        W44953  41.725   8.276  49.681
53030W        W44954  43.218  47.204  51.962
53031W        W44955  13.262  18.243  50.129
53032W        W44956  27.734  33.732  50.605
53033W        W44957  13.274  38.201  51.492
53034W        W44958  24.256   7.281  51.509
53035W        W44959  40.706  25.258  50.121
53036W        W44960  25.209  24.218  53.358
53037W        W44961  16.768  14.749  51.514
53038W        W44962  25.712  31.733  51.523
53039W        W44963  28.233  42.709  51.052
53040W        W44964  13.231  34.738  53.796
53041W        W44965  11.753  15.766  52.443
53042W        W44966  32.211  16.256  51.493
53043W        W44967  21.216  14.257  51.518
53044W        W44968  46.685   1.293  49.675
53045W        W44969  25.242  20.716  51.972
53046W        W44970  19.730  20.220  53.793
53047W        W44971  39.188  25.747  50.598
53048W        W44972  34.226  23.730  52.448
53049W        W44973   7.762   4.288  51.049
53050W        W44974  47.196   3.281  51.981
53051W        W44975  18.742  14.275  51.521
53052W        W44976  46.693  42.690  52.431
53053W        W44977  14.739  47.211  50.597
53054W        W44978  12.232   6.249  51.514
53055W        W44979  26.235  37.731  52.896
53056W        W44980  38.722  43.723  53.334
53057W        W44981  10.280  30.699  51.961
53058W        W44982  12.272  34.702  52.861
53059W        W44983   0.754   5.756  50.163
53060W        W44984  11.751  14.774  49.695
53061W        W44985  28.222  24.215  51.976
53062W        W44986  43.218  45.708  52.434
53063W        W44987  30.726  17.734  51.495
53064W        W44988  19.736   4.778  52.885
53065W        W44989  11.240  38.719  52.438
53066W        W44990  37.229  28.230  50.579
53067W        W44991  16.265  22.739  49.695
53068W        W44992  37.727  28.726  52.884
53069W        W44993  23.739  42.723  50.145
53070W        W44994  13.730   3.749  50.605
53071W        W44995   1.774  10.739  52.865
53072W        W44996  20.266  26.229  53.343
53073W        W44997  13.240  44.702  51.034
53074W        W44998   4.281  18.243  53.334
53075W        W44999  26.253  43.685  49.706
53076W        W45000  39.196  39.716  49.688
53077W        W45001  46.193  40.729  51.522
53078W        W45002  44.724  16.266  51.039
53079W        W45003  18.239  45.695  51.040
53080W        W45004  12.737  27.739  49.699
53081W        W45005  11.275  10.782  53.354
53082W        W45006  11.267  24.246  52.877
53083W        W45007  28.724  43.202  50.137
53084W        W45008  37.731  16.764  52.403
53085W        W45009   2.266  39.187  51.069
53086W        W45010  27.748   8.758  50.148
53087W        W45011   4.780  14.743  51.069
53088W        W45012  27.251  32.736  51.535
53089W        W45013  18.251  15.765  52.866
53090W        W45014  24.716  46.693  52.895
53091W        W45015  43.208  37.717  51.956
53092W        W45016  39.714  17.759  53.352
53093W        W45017  48.201  28.726  53.791
53094W        W45018  33.743  46.212  50.597
53095W        W45019  19.756  45.706  53.333
53096W        W45020  16.754   6.773  53.358
53097W        W45021   3.276   3.258  53.808
53098W        W45022   6.269  18.753  50.607
53099W        W45023  23.752   7.268  50.138
53100W        W45024  29.707   5.275  51.490
53101W        W45025  13.755  42.187  53.785
53102W        W45026  41.723   3.766  50.591
53103W        W45027  17.735  26.245  52.898
53104W        W45028  21.241  39.195  49.676
53105W        W45029   1.258  26.254  52.413
53106W        W45030  19.748  38.720  50.609
53107W        W45031  33.708  29.735  52.436
53108W        W45032  20.763  21.219  53.814
53109W        W45033  29.733  47.217  52.869
53110W        W45034  33.712  11.768  51.528
53111W        W45035   8.765   8.243  51.980
53112W        W45036  30.719  36.705  51.962
53113W        W45037   4.766  28.747  52.891
53114W        W45038  27.741  16.749  50.155
53115W        W45039  36.704   1.755  52.895
53116W        W45040   2.760  46.201  52.894
53117W        W45041   7.756  24.241  53.346
53118W        W45042  38.206  39.232  53.333
53119W        W45043  39.727  28.225  51.523
53120W        W45044  29.218  47.697  51.057
53121W        W45045  30.202  31.704  53.815
53122W        W45046   9.282  32.729  50.595
53123W        W45047  17.722   5.283  51.985
53124W        W45048  34.730  27.207  53.782
53125W        W45049  30.217  22.743  51.956
53126W        W45050   5.774  43.218  51.043
53127W        W45051  30.237  22.223  51.987
53128W        W45052  35.210   0.780  51.953
53129W        W45053  35.228   7.281  52.884
53130W        W45054  21.220  41.710  50.580
53131W        W45055  13.745   2.277  51.969
53132W        W45056  36.730  16.262  53.788
53133W        W45057  24.719  18.234  52.875
53134W        W45058  19.747  34.740  49.668
53135W        W45059   6.241  35.200  53.322
53136W        W45060  39.195  30.743  49.695
53137W        W45061  36.220   1.789  49.679
53138W        W45062  35.708   3.757  51.075
53139W        W45063   0.771  46.676  52.864
53140W        W45064  47.220  29.738  52.899
53141W        W45065   3.766  35.239  51.982
53142W        W45066   5.768   3.772  51.532
53143W        W45067  24.712  19.222  50.138
53144W        W45068   8.244  37.221  53.320
53145W        W45069  27.209  22.234  49.684
53146W        W45070  29.739   6.242  53.786
53147W        W45071  38.706  43.197  52.890
53148W        W45072  35.221   0.288  53.782
53149W        W45073   9.776  17.733  49.665
53150W        W45074  25.745  36.720  50.619
53151W        W45075  22.219  33.221  51.047
53152W        W45076  11.738  34.695  53.344
53153W        W45077  25.709  18.238  51.509
53154W        W45078  45.218   2.794  52.883
53155W        W45079   7.786  40.687  50.133
53156W        W45080  40.699  35.212  52.407
53157W        W45081  32.204  16.768  52.868
53158W        W45082   2.788  24.216  53.357
53159W        W45083  26.737   1.270  51.043
53160W        W45084   3.268  42.187  50.158
53161W        W45085  21.723  10.776  53.357
53162W        W45086  24.255  30.211  50.153
53163W        W45087  29.210  15.266  49.694
53164W        W45088   6.263  21.724  51.535
53165W        W45089  14.774  43.214  49.710
53166W        W45090  15.755  47.182  52.437
53167W        W45091  28.745   1.263  50.127
53168W        W45092  34.715  32.222  52.409
53169W        W45093  12.767  42.212  50.581
53170W        W45094  23.234  15.764  53.810
53171W        W45095  13.730  34.726  50.590
53172W        W45096  41.689  24.239  52.406
53173W        W45097  33.722  36.222  49.694
53174W        W45098  31.210  20.235  53.322
53175W        W45099  48.182   8.748  50.583
53176W        W45100  43.726   7.257  50.130
53177W        W45101  31.719   2.284  51.962
53178W        W45102  42.192  19.249  52.426
53179W        W45103  46.686  13.757  51.986
53180W        W45104  18.765  26.744  49.693
53181W        W45105  33.731   4.252  50.126
53182W        W45106   4.752  17.737  53.815
53183W        W45107  35.739  46.717  53.349
53184W        W45108  32.221  30.741  53.333
53185W        W45109  31.220  33.729  52.885
53186W        W45110  19.230  38.706  53.796
53187W        W45111  38.697   5.285  51.961
53188W        W45112  34.741  13.756  50.618
53189W        W45113  25.739  46.716  50.150
53190W        W45114  14.743  26.212  51.511
53191W        W45115  41.207  14.248  49.693
53192W        W45116  32.202  28.228  52.888
53193W        W45117  11.248  23.717  51.981
53194W        W45118  29.203   7.287  51.500
53195W        W45119  26.213   6.745  50.584
53196W        W45120  14.257  16.237  53.808
53197W        W45121  16.226  40.191  53.340
53198W        W45122   1.796  30.708  50.605
53199W        W45123   9.776  31.246  53.806
53200W        W45124   5.769   1.780  51.989
53201W        W45125  41.216  36.701  49.676
53202W        W45126   3.263  25.711  51.044
53203W        W45127  43.211  14.730  50.149
53204W        W45128  16.269  11.279  52.443
53205W        W45129  27.750  38.223  51.519
53206W        W45130  48.218   5.247  50.596
53207W        W45131  15.230  30.743  50.599
53208W        W45132  42.181   8.741  50.143
53209W        W45133  44.684  47.196  53.361
53210W        W45134  25.245  45.214  51.956
53211W        W45135  39.220  33.726  53.344
53212W        W45136  13.244  45.218  53.814
53213W        W45137  27.746  48.178  50.615
53214W        W45138  23.218  42.707  51.060
53215W        W45139  22.237  26.228  51.522
53216W        W45140  28.730   7.750  52.410
53217W        W45141  48.186  42.187  52.435
53218W        W45142  16.769  46.200  52.890
53219W        W45143  42.216  43.226  50.619
53220W        W45144  41.721  42.198  50.143
53221W        W45145  24.249  32.744  52.895
53222W        W45146  27.753  47.187  51.530
53223W        W45147   6.782   7.760  51.976
53224W        W45148  48.206  32.724  51.046
53225W        W45149  42.225  25.246  51.051
53226W        W45150  25.725  22.214  53.348
53227W        W45151  21.750  41.701  52.412
53228W        W45152  28.729  34.225  52.881
53229W        W45153  42.217   9.779  52.879
53230W        W45154  16.247   7.256  53.350
53231W        W45155  13.747  45.684  51.065
53232W        W45156  39.210  39.222  49.686
53233W        W45157  31.200   5.250  51.507
53234W        W45158  34.739   9.246  52.878
53235W        W45159  33.717  18.226  53.797
53236W        W45160   4.776  21.248  53.352
53237W        W45161  11.233   8.751  52.423
53238W        W45162  24.213  19.726  51.070
53239W        W45163  15.729  18.734  51.066
53240W        W45164  42.724   3.770  52.408
53241W        W45165  44.211   7.256  52.872
53242W        W45166  47.711  44.693  52.895
53243W        W45167  18.724  42.198  53.329
53244W        W45168   0.266  46.214  51.533
53245W        W45169  35.736  41.722  51.964
53246W        W45170   9.759  26.722  51.518
53247W        W45171  48.198  23.752  51.986
53248W        W45172  37.737  32.741  52.445
53249W        W45173   3.294  47.675  50.596
53250W        W45174  31.226  43.221  50.139
53251W        W45175  47.177  36.710  50.605
53252W        W45176  25.243  14.252  52.410
53253W        W45177  36.729  45.686  50.124
53254W        W45178  40.731  16.743  49.706
53255W        W45179  21.257  34.708  50.610
53256W        W45180   2.785  24.249  52.403
53257W        W45181  36.237   7.272  49.701
53258W        W45182  29.721  30.226  50.155
53259W        W45183  11.244   0.257  52.895
53260W        W45184   7.769  30.202  50.152
53261W        W45185  20.761  42.709  51.040
53262W        W45186   3.774  34.229  50.154
53263W        W45187  41.218  48.194  51.075
53264W        W45188   1.769  29.215  51.076
53265W        W45189   0.779   1.266  53.813
53266W        W45190  21.251  46.676  51.978
53267W        W45191  14.273  17.728  50.137
53268W        W45192   3.760  22.241  52.437
53269W        W45193  43.195   6.262  51.989
53270W        W45194  25.735  40.683  53.808
53271W        W45195  37.719   3.763  50.136
53272W        W45196  35.213  26.213  52.434
53273W        W45197  24.732  29.743  52.441
53274W        W45198  12.269  16.759  53.808
53275W        W45199  27.707  36.714  51.950
53276W        W45200   2.794   2.792  51.063
53277W        W45201   3.257  13.736  52.406
53278W        W45202  16.253   0.753  49.678
53279W        W45203  11.240  43.182  49.665
53280W        W45204  12.275  42.722  53.360
53281W        W45205   0.257  46.188  49.699
53282W        W45206  32.743   5.789  50.163
53283W        W45207  48.189  17.254  50.621
53284W        W45208  13.234  38.706  53.342
53285W        W45209  14.251  21.748  53.323
53286W        W45210  18.746  39.209  53.338
53287W        W45211  11.268  20.733  52.866
53288W        W45212  24.719  43.181  53.353
53289W        W45213  12.730  36.722  50.607
53290W        W45214  19.254  33.695  53.787
53291W        W45215  32.236  18.229  50.145
53292W        W45216  22.746  16.262  50.166
53293W        W45217   9.781  43.691  49.679
53294W        W45218  15.755  21.259  51.045
53295W        W45219  42.210  21.736  51.047
53296W        W45220  20.760  26.251  50.124
53297W        W45221  45.708  43.192  50.615
53298W        W45222  26.250  15.266  53.349
53299W        W45223  11.268  36.697  51.992
53300W        W45224  44.219   4.272  50.140
53301W        W45225  30.210  29.743  50.150
53302W        W45226   2.267  18.767  51.490
53303W        W45227  21.760  37.193  50.582
53304W        W45228   4.266  46.712  51.512
53305W        W45229  18.240  20.219  51.037
53306W        W45230   9.766  29.728  52.871
53307W        W45231  46.691  47.213  52.417
53308W        W45232  13.745  21.254  52.437
53309W        W45233  30.727   5.779  53.326
53310W        W45234  27.744   8.244  51.075
53311W        W45235   4.759   9.735  51.988
53312W        W45236  43.222   9.782  53.316
53313W        W45237  18.745  22.253  52.870
53314W        W45238  21.260  33.719  52.901
53315W        W45239  27.732  30.733  51.526
53316W        W45240  35.722   7.241  53.359
53317W        W45241  13.775  44.722  51.521
53318W        W45242  16.264  25.729  53.323
53319W        W45243  20.738  16.248  51.511
53320W        W45244  47.177  19.229  51.956
53321W        W45245  27.724  18.761  53.331
53322W        W45246  33.219  26.213  53.321
53323W        W45247  43.707  30.243  51.054
53324W        W45248  32.722  44.712  53.773
53325W        W45249  17.764  44.223  50.589
53326W        W45250  12.265  12.734  51.964
53327W        W45251  42.693  14.238  51.058
53328W        W45252  33.204  26.748  53.361
53329W        W45253  21.751   7.287  51.064
53330W        W45254  31.238  14.231  53.329
53331W        W45255  21.239  29.725  53.813
53332W        W45256  43.710  11.750  49.677
53333W        W45257   9.260  34.725  53.808
53334W        W45258  31.204   5.753  50.593
53335W        W45259  28.710  15.726  50.131
53336W        W45260   4.776  18.720  52.863
53337W        W45261  17.246  40.719  50.609
53338W        W45262  16.256  16.238  49.710
53339W        W45263  40.718   1.263  52.885
53340W        W45264  40.695  17.768  51.989
53341W        W45265  17.730  46.174  49.675
53342W        W45266  37.717   2.780  53.330
53343W        W45267  15.247  29.224  53.341
53344W        W45268  16.267  28.720  49.675
53345W        W45269  16.240  28.242  51.071
53346W        W45270   2.281   6.743  50.621
53347W        W45271  37.235  42.713  51.505
53348W        W45272  19.249  37.714  51.971
53349W        W45273   2.266  12.768  51.980
53350W        W45274   0.753  39.216  49.708
53351W        W45275  27.727  17.227  53.788
53352W        W45276  30.725  16.764  52.445
53353W        W45277  34.207  47.214  49.676
53354W        W45278  38.731  28.232  49.671
53355W        W45279  24.724  13.278  52.423
53356W        W45280   9.769  47.704  51.949
53357W        W45281  29.712  27.740  50.127
53358W        W45282  37.196  15.773  51.959
53359W        W45283  21.217   1.284  50.141
53360W        W45284  36.735  39.212  51.078
53361W        W45285  18.249  44.194  50.613
53362W        W45286  40.195  42.683  50.577
53363W        W45287  23.721  26.714  49.698
53364W        W45288  48.214  33.723  52.897
53365W        W45289  31.236  13.769  52.863
53366W        W45290  26.229  28.751  51.495
53367W        W45291  24.714   6.254  52.417
53368W        W45292  41.729  23.226  52.892
53369W        W45293  44.195  36.736  51.053
53370W        W45294   6.245  37.213  53.789
53371W        W45295  32.711  19.256  50.606
53372W        W45296   6.780  39.684  50.583
53373W        W45297  46.204  47.199  52.896
53374W        W45298  11.250  14.726  53.773
53375W        W45299  19.223  17.757  53.785
53376W        W45300  46.204  30.723  53.318
53377W        W45301  26.743  24.242  52.879
53378W        W45302  13.742  40.204  51.521
53379W        W45303   1.785  19.261  51.050
53380W        W45304   7.271   5.789  52.870
53381W        W45305  14.736  28.220  51.965
53382W        W45306  34.222  31.732  53.808
53383W        W45307   9.238  46.674  50.164
53384W        W45308   2.748  31.741  51.079
53385W        W45309  21.720  44.201  53.801
53386W        W45310  31.224  16.247  49.696
53387W        W45311  33.741   3.754  50.160
53388W        W45312   1.778  20.731  52.425
53389W        W45313  13.761   0.795  52.896
53390W        W45314  16.748  42.681  50.585
53391W        W45315  21.734   6.265  53.816
53392W        W45316  11.262   9.776  50.137
53393W        W45317  26.230   0.279  50.164
53394W        W45318  28.225  17.271  51.526
53395W        W45319   5.282  41.688  53.331
53396W        W45320  43.702  35.723  50.612
53397W        W45321   0.765  10.242  51.981
53398W        W45322  22.226   4.292  52.436
53399W        W45323  46.703   4.747  51.963
53400W        W45324  43.222  34.200  51.973
53401W        W45325  40.197  46.712  52.868
53402W        W45326  47.720  34.717  50.593
53403W        W45327  15.244  43.224  50.596
53404W        W45328  47.204  23.727  50.151
53405W        W45329  38.694  13.736  51.979
53406W        W45330  47.196  17.737  49.679
53407W        W45331  29.223  27.725  52.409
53408W        W45332  30.219  40.224  49.691
53409W        W45333  37.189   9.775  51.057
53410W        W45334  35.709  37.734  52.438
53411W        W45335  33.209  28.709  53.793
53412W        W45336  24.748  18.248  50.163
53413W        W45337  48.190  25.210  50.609
53414W        W45338   7.776   3.283  50.157
53415W        W45339  42.215  41.213  50.588
53416W        W45340  27.210   2.289  50.613
53417W        W45341   6.749   2.257  51.042
53418W        W45342  13.763   2.788  49.691
53419W        W45343  38.234   8.779  50.600
53420W        W45344  28.207   1.779  49.690
53421W        W45345  11.276   0.791  53.319
53422W        W45346  24.750  24.231  50.578
53423W        W45347  38.202  45.205  51.503
53424W        W45348   4.778  34.716  52.427
53425W        W45349  21.237  34.731  51.496
53426W        W45350  19.238  28.221  53.809
53427W        W45351  12.755  35.717  51.957
53428W        W45352   1.273  11.262  52.425
53429W        W45353   9.771   9.742  50.132
53430W        W45354  45.177  39.727  49.705
53431W        W45355  13.773  41.701  51.077
53432W        W45356  12.254  10.247  51.966
53433W        W45357  23.718  33.716  50.585
53434W        W45358  14.273  30.207  52.872
53435W        W45359  36.701  20.234  51.958
53436W        W45360  21.235  11.243  50.592
53437W        W45361  28.213  24.253  52.891
53438W        W45362   7.760  44.190  51.524
53439W        W45363   3.292  36.200  53.800
53440W        W45364  38.712  14.747  53.798
53441W        W45365  38.193  34.203  52.425
53442W        W45366  17.259   4.777  50.130
53443W        W45367   3.772  14.741  53.361
53444W        W45368  28.231   2.791  49.693
53445W        W45369  11.735  16.743  49.697
53446W        W45370  16.254  34.210  52.891
53447W        W45371   3.756  24.712  52.437
53448W        W45372  16.257   1.765  50.134
53449W        W45373   2.771  34.730  51.986
53450W        W45374  28.703   5.790  49.699
53451W        W45375  21.764  44.699  50.124
53452W        W45376  12.251   3.250  51.491
53453W        W45377  42.197   6.744  50.583
53454W        W45378  23.730   6.749  50.621
53455W        W45379  11.277  31.219  49.678
53456W        W45380  31.704  37.216  53.799
53457W        W45381  33.202  45.197  51.980
53458W        W45382  39.211  22.750  51.961
53459W        W45383  10.769  35.194  52.884
53460W        W45384  16.733  37.693  50.584
53461W        W45385  28.235  45.201  52.443
53462W        W45386  44.688  40.715  51.956
53463W        W45387  15.225  47.181  51.531
53464W        W45388  45.203  41.704  53.326
53465W        W45389   6.781  23.723  51.519
53466W        W45390   5.762  17.250  53.349
53467W        W45391  22.753  47.175  52.863
53468W        W45392  12.270  44.222  51.065
53469W        W45393  29.727  12.765  53.784
53470W        W45394  22.239  34.732  50.124
53471W        W45395  22.726   3.784  51.039
53472W        W45396  22.228  12.772  52.442
53473W        W45397  26.719  22.755  52.895
53474W        W45398  21.256   9.744  53.344
53475W        W45399  23.220  48.202  52.430
53476W        W45400  42.706  42.722  51.517
53477W        W45401  35.225  32.708  50.583
53478W        W45402  22.728  12.761  50.620
53479W        W45403   6.273  47.693  50.159
53480W        W45404  37.703  18.760  53.361
53481W        W45405  29.721  24.236  53.350
53482W        W45406   5.741  13.753  50.136
53483W        W45407  19.719  20.266  51.058
53484W        W45408  46.705  32.724  51.962
53485W        W45409   0.285  12.753  52.445
53486W        W45410  31.735  18.236  49.668
53487W        W45411   8.781   6.277  51.987
53488W        W45412  44.689  29.735  50.133
53489W        W45413  34.221   1.777  50.145
53490W        W45414  29.701  31.206  51.041
53491W        W45415  43.692  47.705  51.079
53492W        W45416  21.228  17.255  49.669
53493W        W45417  21.719  46.183  51.948
53494W        W45418  16.743  27.749  50.592
53495W        W45419  26.747  31.209  51.064
53496W        W45420  46.715  12.751  50.155
53497W        W45421  44.188  42.689  53.351
53498W        W45422  30.239  33.243  52.413
53499W        W45423  33.737  20.758  51.517
53500W        W45424  15.729  38.193  51.990
53501W        W45425  22.724  17.256  51.957
53502W        W45426   7.742  10.739  50.128
53503W        W45427  11.735   8.285  53.795
53504W        W45428  21.755  21.756  53.316
53505W        W45429  12.775  14.728  53.780
53506W        W45430  23.212  26.227  51.045
53507W        W45431   6.284  44.214  52.864
53508W        W45432  22.732  21.255  51.532
53509W        W45433   9.767  10.750  51.493
53510W        W45434  24.722  42.203  51.525
53511W        W45435  41.698   6.780  51.976
53512W        W45436  22.236  10.762  50.596
53513W        W45437  37.694  39.198  53.353
53514W        W45438  11.276  27.709  51.056
53515W        W45439  21.720  44.684  51.060
53516W        W45440  40.217  21.758  50.123
53517W        W45441  39.690  20.236  51.060
53518W        W45442  15.773  12.271  49.669
53519W        W45443  40.731  27.221  52.866
53520W        W45444   6.249  35.227  51.074
53521W        W45445  37.234   2.774  50.622
53522W        W45446  30.213  36.219  51.533
53523W        W45447   3.267  22.753  49.690
53524W        W45448  12.747  40.216  52.409
53525W        W45449  36.692   0.263  50.591
53526W        W45450  25.756   3.786  50.621
53527W        W45451  16.247   7.783  51.042
53528W        W45452  46.192  45.197  52.894
53529W        W45453   3.751  42.181  53.359
53530W        W45454  41.721  20.717  51.496
53531W        W45455   6.267  40.211  50.598
53532W        W45456  38.723  45.720  52.423
53533W        W45457  17.768   0.778  53.355
53534W        W45458  33.242   7.755  52.435
53535W        W45459  41.682  10.237  53.351
53536W        W45460  28.740  18.735  51.041
53537W        W45461  17.765   9.778  53.813
53538W        W45462  11.762  15.758  49.685
53539W        W45463  32.732  36.734  51.512
53540W        W45464  40.721  13.247  49.699
53541W        W45465  42.220  31.244  50.593
53542W        W45466  16.730  25.756  53.344
53543W        W45467  39.719  46.695  52.868
53544W        W45468  31.702  47.712  52.435
53545W        W45469  38.203   3.292  52.884
53546W        W45470   0.766  39.217  51.042
53547W        W45471  29.724   2.267  53.815
53548W        W45472  26.736  39.719  50.586
53549W        W45473  17.755  18.756  50.134
53550W        W45474  33.744  27.230  51.976
53551W        W45475  26.726  25.241  50.621
53552W        W45476  31.735  46.221  52.416
53553W        W45477  22.716  14.727  53.318
53554W        W45478  18.746  33.213  50.131
53555W        W45479  25.242  41.691  50.155
53556W        W45480  36.705  37.192  52.427
53557W        W45481  41.712   2.285  51.491
53558W        W45482  14.744  43.722  51.983
53559W        W45483  21.259  47.704  51.048
53560W        W45484  48.192  30.707  53.794
53561W        W45485  20.265  30.705  53.336
53562W        W45486  14.735  21.221  49.684
53563W        W45487  12.738  27.719  53.338
53564W        W45488   7.771  24.731  52.408
53565W        W45489  24.717  37.709  53.332
53566W        W45490  15.267  26.737  51.524
53567W        W45491  26.733  20.744  49.670
53568W        W45492  38.707   5.766  50.578
53569W        W45493  26.727  33.241  52.876
53570W        W45494  44.224  38.231  53.350
53571W        W45495  24.723  37.737  52.433
53572W        W45496  18.222   7.286  49.696
53573W        W45497  39.729  24.755  52.424
53574W        W45498  36.704  19.233  51.076
53575W        W45499  22.743  23.214  51.036
53576W        W45500  31.747   7.743  50.608
53577W        W45501   4.749  40.712  50.149
53578W        W45502  27.237   4.792  50.159
53579W        W45503  33.732  47.184  51.950
53580W        W45504  39.724  31.200  52.866
53581W        W45505  42.683  10.247  53.798
53582W        W45506  16.749  35.723  53.777
53583W        W45507  17.763  11.281  51.523
53584W        W45508  47.697  43.681  51.977
53585W        W45509  37.237  28.229  50.131
53586W        W45510   6.751  12.237  51.529
53587W        W45511  22.740  10.770  52.866
53588W        W45512  32.197  15.231  50.595
53589W        W45513  44.191  26.221  51.043
53590W        W45514  31.718  28.738  50.598
53591W        W45515  28.705  21.756  53.322
53592W        W45516  35.237  18.248  50.151
53593W        W45517  21.758   2.277  52.894
53594W        W45518  40.227  21.726  53.320
53595W        W45519  39.716   2.285  51.513
53596W        W45520  28.737  28.713  53.792
53597W        W45521   1.779  30.248  52.893
53598W        W45522  25.728  40.223  51.064
53599W        W45523  33.744  30.237  53.357
53600W        W45524   6.243  16.266  52.437
53601W        W45525  12.273  12.746  53.346
53602W        W45526   1.765  39.216  51.503
53603W        W45527  43.726  16.752  52.430
53604W        W45528   7.254  32.709  53.801
53605W        W45529  15.258  18.759  50.590
53606W        W45530   4.788  19.718  51.534
53607W        W45531   7.748  30.202  51.492
53608W        W45532   7.260  26.755  52.885
53609W        W45533  12.260  26.738  52.421
53610W        W45534  17.734  44.700  52.428
53611W        W45535   9.284  45.721  49.697
53612W        W45536  29.221  45.677  49.686
53613W        W45537  20.223  35.228  52.887
53614W        W45538  16.757  33.712  53.779
53615W        W45539  33.202   5.746  49.664
53616W        W45540  45.221  41.718  50.605
53617W        W45541   2.275  33.707  51.983
53618W        W45542  33.708  34.729  51.064
53619W        W45543  21.257  28.212  50.600
53620W        W45544  13.742  37.729  52.886
53621W        W45545  42.187  37.206  50.121
53622W        W45546  43.184  28.726  53.338
53623W        W45547  27.212  33.203  50.122
53624W        W45548  43.717  43.712  51.507
53625W        W45549  47.181  13.252  51.060
53626W        W45550  19.234  41.196  53.352
53627W        W45551  43.225  21.253  50.610
53628W        W45552  12.239  35.230  51.509
53629W        W45553  37.206  25.232  53.323
53630W        W45554  42.723  37.724  51.500
53631W        W45555  41.225  42.217  52.884
53632W        W45556   1.269  18.725  53.800
53633W        W45557  37.196   9.261  51.948
53634W        W45558   3.269  25.255  51.965
53635W        W45559  31.727  25.239  49.677
53636W        W45560  14.256  46.710  51.076
53637W        W45561  33.230  43.679  52.433
53638W        W45562  20.265  29.728  53.786
53639W        W45563   5.762  10.268  53.350
53640W        W45564  38.732  34.197  53.317
53641W        W45565  41.703  43.225  50.155
53642W        W45566   6.758   6.280  53.335
53643W        W45567  13.746  10.265  52.422
53644W        W45568  14.239  35.717  52.421
53645W        W45569  46.174  15.746  53.802
53646W        W45570  25.257  41.729  50.612
53647W        W45571  41.206   5.274  50.578
53648W        W45572   4.284  11.763  49.694
53649W        W45573  40.219  22.756  51.532
53650W        W45574  42.713  28.240  51.524
53651W        W45575  11.734  19.745  53.772
53652W        W45576  46.678   1.767  50.127
53653W        W45577  19.257  35.701  52.408
53654W        W45578  40.195  37.712  50.620
53655W        W45579   5.274  10.747  51.068
53656W        W45580  12.744  11.771  52.441
53657W        W45581  45.675   7.745  49.670
53658W        W45582  45.190  10.763  51.064
53659W        W45583  15.761  10.282  50.592
53660W        W45584  14.738  36.716  52.877
53661W        W45585  32.232  43.212  50.128
53662W        W45586  23.723  30.209  53.773
53663W        W45587  16.748  20.716  51.044
53664W        W45588  31.238  17.752  50.618
53665W        W45589   2.787  43.194  52.423
53666W        W45590  10.749  30.227  51.951
53667W        W45591   0.255  41.188  49.680
53668W        W45592  30.736  43.726  51.951
53669W        W45593   2.775  23.713  52.888
53670W        W45594  45.695  18.253  53.328
53671W        W45595  42.710  19.762  52.859
53672W        W45596   2.276  16.768  52.869
53673W        W45597  30.236  25.244  53.802
53674W        W45598  26.734  39.195  51.523
53675W        W45599  29.246   8.239  51.965
53676W        W45600  22.734   4.269  51.522
53677W        W45601   1.285   3.273  50.140
53678W        W45602  48.207  21.225  52.413
53679W        W45603  48.194  12.279  52.420
53680W        W45604  26.240  14.769  52.888
53681W        W45605  40.685  19.732  53.799
53682W        W45606  15.763   6.777  53.798
53683W        W45607  11.771  24.739  51.533
53684W        W45608  30.747  20.752  53.352
53685W        W45609  18.730   4.249  50.582
53686W        W45610  39.203  20.256  51.512
53687W        W45611   6.772  11.255  50.149
53688W        W45612  29.211  20.261  50.125
53689W        W45613  44.199  47.187  49.687
53690W        W45614   4.757  25.245  49.686
53691W        W45615  15.273  47.703  50.138
53692W        W45616   1.248  35.200  51.056
53693W        W45617  39.733  19.756  51.950
53694W        W45618  10.253  36.231  51.503
53695W        W45619  46.674  38.202  52.410
53696W        W45620  30.729   2.275  49.702
53697W        W45621  11.238  33.713  51.952
53698W        W45622   0.798  45.201  51.964
53699W        W45623  23.231  22.263  53.318
53700W        W45624  33.237   1.779  53.798
53701W        W45625  35.195  19.259  51.990
53702W        W45626   6.748  25.721  52.424
53703W        W45627   3.251  15.728  51.060
53704W        W45628   0.799  17.265  51.528
53705W        W45629   8.762  13.734  50.164
53706W        W45630   8.746  29.215  50.126
53707W        W45631  39.707  42.228  52.880
53708W        W45632  14.745  10.247  51.978
53709W        W45633  28.741  37.712  53.344
53710W        W45634  16.270  19.767  51.956
53711W        W45635  20.235  28.747  53.792
53712W        W45636   5.761   4.755  53.328
53713W        W45637  13.229  40.213  49.704
53714W        W45638  45.724  28.239  52.894
53715W        W45639  22.216  41.224  53.344
53716W        W45640  18.224  19.741  49.695
53717W        W45641  28.208   8.238  51.517
53718W        W45642  43.223  17.233  53.334
53719W        W45643  30.232  19.250  51.494
53720W        W45644   5.254   2.774  52.869
53721W        W45645  26.711   7.264  53.807
53722W        W45646  21.264   8.256  53.790
53723W        W45647  34.239  30.237  53.356
53724W        W45648  30.231   7.755  51.983
53725W        W45649  25.739  16.234  53.339
53726W        W45650   8.746  11.764  50.617
53727W        W45651  11.770   7.782  51.057
53728W        W45652   0.282   5.787  51.524
53729W        W45653  45.718   8.766  49.666
53730W        W45654  31.732  42.682  52.878
53731W        W45655   3.772  20.730  51.076
53732W        W45656  35.215   1.278  50.159
53733W        W45657  35.703  23.258  50.150
53734W        W45658  39.206  16.767  51.494
53735W        W45659  10.259  34.240  51.065
53736W        W45660   1.265  44.186  49.707
53737W        W45661  10.761   7.765  51.957
53738W        W45662  13.770   4.776  50.595
53739W        W45663  18.264  26.740  53.791
53740W        W45664  14.243  19.763  49.708
53741W        W45665   7.767  13.732  51.053
53742W        W45666  17.729   6.273  51.955
53743W        W45667   6.776   1.248  50.162
53744W        W45668  23.217  24.753  51.055
53745W        W45669  17.252  27.209  49.704
53746W        W45670   2.762  36.238  52.408
53747W        W45671   8.267   6.771  49.684
53748W        W45672   2.778  26.733  51.068
53749W        W45673  33.736  39.732  51.056
53750W        W45674   8.266  25.215  50.129
53751W        W45675  23.215  11.762  51.951
53752W        W45676  16.260  10.278  51.052
53753W        W45677  21.257  11.275  51.525
53754W        W45678  12.741  33.695  51.037
53755W        W45679  41.685  47.207  51.072
53756W        W45680   6.253  19.727  53.316
53757W        W45681  43.680  34.736  52.427
53758W        W45682  40.707   5.262  53.334
53759W        W45683   8.278  36.726  50.134
53760W        W45684   8.263  24.712  53.321
53761W        W45685  12.752  21.726  49.688
53762W        W45686  19.230   5.745  53.346
53763W        W45687  28.222   5.248  52.444
53764W        W45688  15.750  41.186  53.813
53765W        W45689  37.219  25.728  53.778
53766W        W45690  14.736  23.261  50.129
53767W        W45691  13.776  24.216  49.690
53768W        W45692  37.697   3.769  50.586
53769W        W45693  15.241  38.226  52.860
53770W        W45694  47.178  18.764  53.814
53771W        W45695  33.708  36.725  49.710
53772W        W45696  32.239  44.223  50.134
53773W        W45697  45.682  17.230  52.415
53774W        W45698   7.738  30.200  51.970
53775W        W45699   6.277  12.240  51.523
53776W        W45700  27.226  15.229  52.871
53777W        W45701  17.224  14.250  51.959
53778W        W45702  20.764   1.285  51.062
53779W        W45703  26.246  31.745  51.961
53780W        W45704  40.729  44.225  53.811
53781W        W45705  26.708  25.242  51.069
53782W        W45706  40.200  48.196  52.407
53783W        W45707  41.188  27.716  51.049
53784W        W45708  10.733  27.740  51.979
53785W        W45709  10.276  13.755  53.341
53786W        W45710  26.753  32.709  53.799
53787W        W45711  35.732  41.222  51.526
53788W        W45712  17.750   8.740  50.590
53789W        W45713  13.248  24.726  53.775
53790W        W45714  41.211   1.277  53.814
53791W        W45715  27.715  47.184  49.697
53792W        W45716  42.701   5.744  51.035
53793W        W45717   0.291  42.693  53.325
53794W        W45718  16.739   1.253  53.774
53795W        W45719  40.192   8.754  50.161
53796W        W45720  19.230  34.729  52.876
53797W        W45721  44.204  41.229  51.954
53798W        W45722  21.735  21.227  52.438
53799W        W45723  15.264   7.747  52.861
53800W        W45724  41.702  28.732  49.677
53801W        W45725  20.741  25.750  50.599
53802W        W45726  27.731  34.715  51.045
53803W        W45727  28.244  16.766  51.048
53804W        W45728  31.234   6.258  51.964
53805W        W45729   3.746  38.215  52.428
53806W        W45730  41.202   8.251  51.947
53807W        W45731  17.723  44.214  49.688
53808W        W45732  16.264  44.187  51.948
53809W        W45733  21.232  27.748  52.413
53810W        W45734   0.293   7.254  53.326
53811W        W45735  24.251  43.191  53.816
53812W        W45736  46.697  21.238  51.514
53813W        W45737  13.747  44.194  51.490
53814W        W45738  24.229  44.703  50.136
53815W        W45739   5.250  20.257  52.424
53816W        W45740  21.241  21.238  52.886
53817W        W45741  43.696  34.213  51.041
53818W        W45742  13.249  43.212  49.701
53819W        W45743  25.246   2.263  52.406
53820W        W45744   2.273  27.722  49.667
53821W        W45745  43.194  44.690  50.613
53822W        W45746  36.732   1.262  49.695
53823W        W45747  24.245   3.781  49.709
53824W        W45748  20.242   7.745  52.895
53825W        W45749   6.752  27.235  50.122
53826W        W45750  34.724   9.767  49.696
53827W        W45751   7.241  27.718  51.071
53828W        W45752   0.257  33.244  52.869
53829W        W45753  13.250  13.768  50.125
53830W        W45754  43.680  23.750  51.039
53831W        W45755  16.230  30.712  50.152
53832W        W45756  39.220  31.199  53.787
53833W        W45757  31.707  15.759  53.360
53834W        W45758  17.228  30.702  53.774
53835W        W45759  25.229  16.760  53.785
53836W        W45760  31.742  24.755  52.869
53837W        W45761   4.244  23.714  53.788
53838W        W45762  26.236   1.783  52.874
53839W        W45763  31.224  34.724  50.134
53840W        W45764   6.262  18.246  50.587
53841W        W45765   9.763  11.769  49.678
53842W        W45766  37.707   9.750  51.522
53843W        W45767  47.674  39.734  52.431
53844W        W45768  37.196  42.199  52.889
53845W        W45769  21.262  14.276  50.586
53846W        W45770  24.754  40.732  53.810
53847W        W45771  37.721  20.244  53.812
53848W        W45772   4.275   6.259  52.411
53849W        W45773  27.237   5.761  52.865
53850W        W45774  29.235   6.265  53.320
53851W        W45775  23.227  31.202  50.601
53852W        W45776  39.725  14.264  49.684
53853W        W45777  43.709  41.185  53.353
53854W        W45778  47.712  34.741  51.952
53855W        W45779  28.709  17.246  52.882
53856W        W45780   4.290  41.698  50.128
53857W        W45781  22.716  34.730  53.796
53858W        W45782  24.257  17.758  51.502
53859W        W45783   1.772  16.752  53.773
53860W        W45784  34.729  46.717  51.033
53861W        W45785  43.690  30.741  49.695
53862W        W45786  28.246  14.750  49.697
53863W        W45787  27.712  18.752  51.983
53864W        W45788  35.699  13.757  51.509
53865W        W45789  40.727  29.242  50.620
53866W        W45790   0.262  15.758  51.961
53867W        W45791  44.698  46.696  53.348
53868W        W45792  35.222  30.221  50.604
53869W        W45793   1.791   8.267  53.807
53870W        W45794  39.209  32.218  50.132
53871W        W45795   9.277  34.724  51.524
53872W        W45796   1.281  39.217  51.496
53873W        W45797  32.244  25.226  53.816
53874W        W45798  16.260  28.244  52.412
53875W        W45799  12.763  30.218  51.513
53876W        W45800  27.234  38.702  49.693
53877W        W45801  29.707  19.765  50.135
53878W        W45802  23.248  21.748  50.585
53879W        W45803  14.756  15.230  52.869
53880W        W45804  18.251  41.194  52.869
53881W        W45805  45.196  35.228  51.507
53882W        W45806   9.776  11.269  52.889
53883W        W45807  47.186  25.253  50.164
53884W        W45808  14.246  46.713  51.532
53885W        W45809  13.767  13.749  52.896
53886W        W45810  23.746   4.275  50.605
53887W        W45811  28.213  16.264  50.130
53888W        W45812  18.254  33.221  51.060
53889W        W45813  29.222   9.268  53.807
53890W        W45814  38.229  38.701  51.048
53891W        W45815   9.237  15.233  51.529
53892W        W45816   8.760  32.233  53.327
53893W        W45817  21.243  43.197  51.502
53894W        W45818  37.216  37.193  49.673
53895W        W45819  15.240  34.237  50.611
53896W        W45820  15.236  46.189  50.615
53897W        W45821   7.266   9.779  53.335
53898W        W45822  37.728  10.751  52.439
53899W        W45823  25.719  10.734  52.418
53900W        W45824  33.697  19.737  51.055
53901W        W45825  44.724   0.258  49.703
53902W        W45826   0.276  14.744  52.414
53903W        W45827  27.227  14.746  52.865
53904W        W45828  36.204  36.205  49.693
53905W        W45829  42.723  15.736  51.947
53906W        W45830  13.730  22.225  53.774
53907W        W45831  28.221   2.747  51.072
53908W        W45832  34.706   8.741  51.985
53909W        W45833  11.268   0.778  50.599
53910W        W45834  43.710  35.193  52.406
53911W        W45835   2.786  46.689  53.807
53912W        W45836  37.237  47.172  50.164
53913W        W45837  36.717  14.736  51.491
53914W        W45838  24.733  21.252  51.040
53915W        W45839  44.693  28.207  53.339
53916W        W45840  10.744   0.299  53.781
53917W        W45841   7.259  32.241  52.442
53918W        W45842   0.793  31.726  51.491
53919W        W45843  13.253  14.741  52.418
53920W        W45844  19.248   2.776  49.706
53921W        W45845   5.270   0.299  53.360
53922W        W45846  17.268  22.735  49.697
53923W        W45847  24.725  13.755  53.775
53924W        W45848   2.258  42.684  51.043
53925W        W45849  19.746  47.179  50.160
53926W        W45850  20.733  45.710  50.592
53927W        W45851  15.726  16.226  53.814
53928W        W45852   9.276  47.719  51.967
53929W        W45853  46.716  14.767  51.527
53930W        W45854  35.210  46.202  49.689
53931W        W45855  38.697  39.707  50.141
53932W        W45856  35.192  37.727  53.791
53933W        W45857  11.244  39.199  49.680
53934W        W45858   8.760  14.245  51.957
53935W        W45859  47.186  35.720  51.490
53936W        W45860  14.761  15.251  53.815
53937W        W45861   7.248  17.242  52.405
53938W        W45862  34.701  44.709  49.700
53939W        W45863  21.261   0.258  51.983
53940W        W45864  35.208  36.705  51.523
53941W        W45865  16.251  33.225  50.151
53942W        W45866  42.682  48.199  52.904
53943W        W45867  20.749  46.716  52.894
53944W        W45868  29.240  21.758  51.989
53945W        W45869  23.720   4.289  53.778
53946W        W45870   2.258  44.719  53.806
53947W        W45871   3.769  31.700  49.690
53948W        W45872  43.684  34.705  51.987
53949W        W45873   6.245  13.769  52.444
53950W        W45874  17.765  19.731  49.688
53951W        W45875  21.731  14.232  49.683
53952W        W45876  40.233  35.222  51.039
53953W        W45877  31.727  37.216  52.432
53954W        W45878  16.760  24.731  49.682
53955W        W45879   6.260  35.235  50.157
53956W        W45880  28.238  34.230  51.949
53957W        W45881  38.229  39.711  52.438
53958W        W45882  25.751  13.767  50.599
53959W        W45883  16.271   7.768  50.134
53960W        W45884   9.749  22.716  53.337
53961W        W45885   0.287   0.250  50.129
53962W        W45886   9.745  19.258  53.330
53963W        W45887   1.261  27.727  51.991
53964W        W45888   7.753  18.228  52.444
53965W        W45889  23.728  17.742  53.789
53966W        W45890  32.705  20.262  53.348
53967W        W45891  19.249  11.270  49.695
53968W        W45892  29.227  19.241  52.442
53969W        W45893  29.750  36.713  51.963
53970W        W45894  37.716   5.267  52.878
53971W        W45895  19.251  39.220  51.041
53972W        W45896   8.255  32.247  50.131
53973W        W45897  21.261   7.753  51.969
53974W        W45898  16.763  15.235  50.146
53975W        W45899  46.204  25.724  53.814
53976W        W45900  12.278  13.250  51.072
53977W        W45901  12.748  26.754  51.519
53978W        W45902  15.234  45.706  52.420
53979W        W45903  28.748  42.727  53.357
53980W        W45904  25.724  39.228  51.070
53981W        W45905   1.769  14.759  51.992
53982W        W45906   0.782   8.750  51.984
53983W        W45907  25.725  18.719  51.531
53984W        W45908  22.248  32.739  53.345
53985W        W45909  16.247  39.226  52.404
53986W        W45910  45.181  13.240  50.129
53987W        W45911  46.193  21.239  51.526
53988W        W45912  29.243  10.737  52.413
53989W        W45913   1.279  22.760  52.902
53990W        W45914  43.689   3.287  51.051
53991W        W45915  47.204   7.754  50.586
53992W        W45916   1.267   8.286  51.074
53993W        W45917  14.766  22.722  49.677
53994W        W45918   4.757   4.271  51.529
53995W        W45919  33.718  29.741  53.343
53996W        W45920   9.241  33.732  52.438
53997W        W45921  35.232  20.239  52.412
53998W        W45922  16.759   2.759  52.409
53999W        W45923  28.228  20.243  52.893
54000W        W45924  27.727  37.723  50.162
54001W        W45925  11.750  45.208  51.531
54002W        W45926   9.267  14.744  52.430
54003W        W45927  48.189  28.235  50.579
54004W        W45928  41.712   4.777  49.666
54005W        W45929  31.700  14.745  51.982
54006W        W45930  28.222  13.273  53.786
54007W        W45931  26.211  21.725  51.050
54008W        W45932  16.735  38.711  49.709
54009W        W45933  32.722  22.226  50.616
54010W        W45934  25.229  36.205  52.861
54011W        W45935  13.735  19.752  51.060
54012W        W45936  41.718   0.288  52.863
54013W        W45937  13.239   5.260  50.579
54014W        W45938  38.703  15.771  53.796
54015W        W45939  46.684  23.729  53.816
54016W        W45940  34.232  25.717  51.949
54017W        W45941  33.227  34.713  53.786
54018W        W45942  29.721  45.724  50.596
54019W        W45943   9.755  44.707  52.860
54020W        W45944  22.235  17.270  51.038
54021W        W45945  26.717  14.271  52.880
54022W        W45946  24.752  20.750  53.324
54023W        W45947   1.284  32.742  51.961
54024W        W45948   8.782  13.746  53.316
54025W        W45949   3.787   2.775  52.889
54026W        W45950  48.207  42.189  50.142
54027W        W45951   5.267  25.245  53.327
54028W        W45952   0.289  38.203  52.415
54029W        W45953  32.226  30.212  51.507
54030W        W45954  38.722  34.240  49.681
54031W        W45955  14.742  45.205  51.509
54032W        W45956  19.229  28.709  52.892
54033W        W45957  47.178  15.246  53.782
54034W        W45958  38.690   7.777  50.617
54035W        W45959   2.294  27.731  52.882
54036W        W45960  40.192   0.767  50.609
54037W        W45961  47.205  14.256  49.680
54038W        W45962  14.257  30.717  52.903
54039W        W45963   7.739  14.763  51.051
54040W        W45964  13.744   8.767  50.129
54041W        W45965  38.734  24.232  50.144
54042W        W45966  25.743  43.727  51.962
54043W        W45967   4.275  43.708  51.955
54044W        W45968  16.231  19.737  49.702
54045W        W45969   9.781   8.775  51.970
54046W        W45970   0.290  32.219  50.599
54047W        W45971  26.711   2.287  51.068
54048W        W45972  27.749  15.743  52.887
54049W        W45973  21.755   1.787  53.807
54050W        W45974  35.707  34.197  49.667
54051W        W45975  32.208   4.766  53.815
54052W        W45976  34.739  40.687  50.593
54053W        W45977   8.249  33.203  49.676
54054W        W45978  35.214  45.699  50.142
54055W        W45979  12.735  43.689  50.155
54056W        W45980   7.738  47.180  51.076
54057W        W45981  12.275   0.786  52.900
54058W        W45982   0.762  24.211  51.057
54059W        W45983  39.226  20.718  51.051
54060W        W45984  18.224  32.220  51.959
54061W        W45985  30.225   2.794  51.069
54062W        W45986  27.745  37.190  49.692
54063W        W45987  46.676  31.239  49.700
54064W        W45988  21.726  30.207  53.814
54065W        W45989  36.724   1.256  52.413
54066W        W45990  13.272  15.756  52.874
54067W        W45991  40.684  33.216  53.353
54068W        W45992   6.761  14.771  49.670
54069W        W45993  26.229  17.229  51.494
54070W        W45994  20.229  29.739  50.592
54071W        W45995  40.209  33.237  52.887
54072W        W45996   4.770  46.209  52.403
54073W        W45997  12.269  34.741  50.156
54074W        W45998  37.195   0.774  53.808
54075W        W45999  44.686  45.208  50.596
54076W        W46000  28.731  13.774  50.618
54077W        W46001  38.728  32.720  50.138
54078W        W46002  20.224  21.746  53.335
54079W        W46003  25.751   9.237  52.878
54080W        W46004  26.753  35.226  50.622
54081W        W46005  16.730  16.265  52.442
54082W        W46006  25.230  42.207  52.421
54083W        W46007  42.195  27.238  49.685
54084W        W46008   2.269  31.205  51.505
54085W        W46009  10.777  32.207  49.704
54086W        W46010   3.787  45.722  50.153
54087W        W46011   0.792   5.769  53.326
54088W        W46012   5.276  44.717  51.048
54089W        W46013  18.722  18.260  51.950
54090W        W46014   0.796  43.682  50.149
54091W        W46015  22.752  15.231  50.620
54092W        W46016  30.703  42.716  51.976
54093W        W46017  42.187  18.757  53.330
54094W        W46018  24.737  45.188  51.077
54095W        W46019  21.241  14.767  50.144
54096W        W46020   6.772  38.699  52.434
54097W        W46021  18.243  19.762  51.970
54098W        W46022  24.724  13.242  53.817
54099W        W46023   5.750  36.721  50.127
54100W        W46024  45.721  20.222  49.678
54101W        W46025  21.735   9.274  51.059
54102W        W46026  26.222  11.274  52.442
54103W        W46027  12.278  34.693  51.077
54104W        W46028  42.706  48.184  51.948
54105W        W46029  44.205   0.760  53.792
54106W        W46030  25.213  24.216  52.441
54107W        W46031   0.270  41.697  51.065
54108W        W46032  42.182   9.773  50.621
54109W        W46033  13.768   4.762  52.406
54110W        W46034  18.760  16.746  49.664
54111W        W46035  45.692   2.761  51.040
54112W        W46036  22.216  16.724  51.525
54113W        W46037  44.202  32.220  53.805
54114W        W46038  19.247   8.257  50.151
54115W        W46039  26.721  23.732  52.901
54116W        W46040  30.237   0.274  51.078
54117W        W46041  16.730  46.715  51.056
54118W        W46042  29.249  39.225  50.579
54119W        W46043  24.722  16.231  52.891
54120W        W46044  40.214   2.788  52.415
54121W        W46045  25.750  26.215  51.078
54122W        W46046   4.791  39.232  53.349
54123W        W46047  39.711  44.201  52.886
54124W        W46048  44.680   6.277  52.403
54125W        W46049  18.221  18.737  51.969
54126W        W46050  11.255  43.697  51.954
54127W        W46051   3.291  34.241  52.410
54128W        W46052  45.183   6.240  49.670
54129W        W46053  30.245   1.797  51.048
54130W        W46054  32.229  10.243  50.592
54131W        W46055   3.794  40.204  52.411
54132W        W46056  26.731  25.754  50.158
54133W        W46057  22.257  16.764  49.703
54134W        W46058  34.709  34.723  53.780
54135W        W46059  36.722  29.744  51.985
54136W        W46060  25.247  10.750  49.672
54137W        W46061  38.230  28.740  51.523
54138W        W46062  23.234  32.210  53.813
54139W        W46063   5.260  24.215  53.794
54140W        W46064  33.714   8.271  51.974
54141W        W46065  18.269   1.293  53.331
54142W        W46066   0.254  28.229  52.443
54143W        W46067  41.707  16.261  49.694
54144W        W46068  21.715  44.724  53.811
54145W        W46069  19.234  26.709  51.042
54146W        W46070   8.765  19.226  52.870
54147W        W46071  46.192  22.238  52.901
54148W        W46072   7.246  47.690  49.693
54149W        W46073  27.220  15.749  49.697
54150W        W46074  13.237   3.791  51.040
54151W        W46075  10.242  28.229  51.504
54152W        W46076  28.705  20.743  52.406
54153W        W46077  28.724   0.254  51.969
54154W        W46078   1.760  32.724  51.052
54155W        W46079  40.213   2.777  53.790
54156W        W46080  38.694  13.755  50.144
54157W        W46081  15.238  25.734  53.346
54158W        W46082  31.233  48.195  51.034
54159W        W46083  43.219  20.230  50.149
54160W        W46084  22.736  39.724  51.047
54161W        W46085  37.694   0.785  51.069
54162W        W46086  13.242  28.745  53.355
54163W        W46087  37.218  26.241  51.981
54164W        W46088   5.758   4.246  53.782
54165W        W46089  10.270   8.281  51.532
54166W        W46090  39.198  25.737  53.348
54167W        W46091  44.709  47.217  52.892
54168W        W46092   0.759  47.711  50.613
54169W        W46093  30.712   1.289  52.880
54170W        W46094  31.744  37.219  52.902
54171W        W46095   4.789   8.770  49.677
54172W        W46096  47.196   5.780  52.883
54173W        W46097  35.714  17.267  49.674
54174W        W46098  37.226  30.720  52.862
54175W        W46099   4.250  24.735  52.885
54176W        W46100   8.270  41.208  51.042
54177W        W46101  39.207  33.718  50.622
54178W        W46102  23.257   8.746  51.983
54179W        W46103  22.746  22.251  50.593
54180W        W46104  30.202   1.791  53.788
54181W        W46105  24.247  17.764  49.665
54182W        W46106  43.209   8.282  50.590
54183W        W46107  22.233   0.271  51.494
54184W        W46108   2.752  39.234  53.778
54185W        W46109  29.244  29.745  49.688
54186W        W46110  26.751  38.220  51.522
54187W        W46111  32.744  41.730  51.520
54188W        W46112   7.763  31.237  53.333
54189W        W46113  10.275  12.777  53.338
54190W        W46114  13.260   0.773  50.142
54191W        W46115  15.762  22.756  51.058
54192W        W46116  34.231   6.283  49.684
54193W        W46117  18.222  14.729  53.342
54194W        W46118  28.730  14.229  50.160
54195W        W46119   3.775  42.711  53.356
54196W        W46120  25.239   8.774  52.895
54197W        W46121  14.775  35.707  51.490
54198W        W46122  31.230  24.757  50.160
54199W        W46123   5.278  30.209  53.317
54200W        W46124  30.242  25.236  53.350
54201W        W46125  12.759  37.734  49.708
54202W        W46126   5.756  44.179  51.036
54203W        W46127  43.194   4.275  53.811
54204W        W46128  24.231  35.705  51.514
54205W        W46129  22.761   0.254  52.875
54206W        W46130   4.275  40.193  50.592
54207W        W46131   2.786  34.721  50.139
54208W        W46132   6.261  21.241  51.509
54209W        W46133  29.226  17.757  50.601
54210W        W46134  46.687   0.796  53.329
54211W        W46135   5.281   2.289  51.496
54212W        W46136  31.236  12.749  50.621
54213W        W46137  19.235  24.227  51.039
54214W        W46138   9.246   9.770  53.334
54215W        W46139  33.743  27.709  53.795
54216W        W46140   3.248   2.263  49.672
54217W        W46141  30.234  26.224  53.788
54218W        W46142  27.738   1.298  51.979
54219W        W46143  11.237  20.247  52.900
54220W        W46144   2.775  12.770  50.148
54221W        W46145  32.698   5.256  52.442
54222W        W46146  14.749  39.695  52.434
54223W        W46147  15.753  31.725  52.411
54224W        W46148  10.263  35.210  50.137
54225W        W46149  37.213  20.257  53.339
54226W        W46150  12.234   4.776  52.438
54227W        W46151  22.752  34.221  52.874
54228W        W46152  29.705  11.241  53.779
54229W        W46153   3.784  41.710  52.863
54230W        W46154  14.762  18.723  51.977
54231W        W46155  42.695  30.732  53.351
54232W        W46156  42.722  27.227  50.620
54233W        W46157  22.727  42.696  49.675
54234W        W46158  34.217  12.760  52.437
54235W        W46159  30.250  23.214  50.158
54236W        W46160  46.706  27.734  50.610
54237W        W46161  45.707  32.233  52.869
54238W        W46162  41.722  40.215  52.874
54239W        W46163  30.749  40.716  51.497
54240W        W46164  18.220  24.236  49.704
54241W        W46165  32.238  21.749  53.814
54242W        W46166  35.217  28.238  51.950
54243W        W46167  33.239  24.212  51.522
54244W        W46168  22.246  37.720  51.524
54245W        W46169  42.209  19.748  51.061
54246W        W46170  16.767  27.727  51.971
54247W        W46171   8.257  11.236  52.422
54248W        W46172  23.748   2.270  51.958
54249W        W46173  15.253  24.736  53.788
54250W        W46174   4.283  36.221  53.793
54251W        W46175  26.733   3.258  51.048
54252W        W46176  37.209  37.196  51.525
54253W        W46177  39.225   4.275  52.898
54254W        W46178   2.775  33.227  52.428
54255W        W46179  22.750  24.232  51.969
54256W        W46180  31.234  12.247  53.343
54257W        W46181  35.692  41.209  49.697
54258W        W46182  24.710  35.219  50.592
54259W        W46183  16.225  33.228  53.814
54260W        W46184  23.221  16.769  51.951
54261W        W46185  18.235   1.249  49.689
54262W        W46186  15.259   3.757  50.128
54263W        W46187  23.749  15.251  52.434
54264W        W46188   0.772  40.186  50.584
54265W        W46189  47.684  22.225  52.888
54266W        W46190  34.709  36.216  52.872
54267W        W46191  40.215  26.711  50.143
54268W        W46192  32.739  26.252  51.497
54269W        W46193  20.741   7.762  51.983
54270W        W46194   7.260  26.708  51.504
54271W        W46195   7.754  28.223  53.319
54272W        W46196  15.746  19.732  52.420
54273W        W46197   2.757  31.718  50.122
54274W        W46198   7.271  38.220  51.975
54275W        W46199  34.221  35.718  50.125
54276W        W46200  24.730  12.748  53.806
54277W        W46201  10.780   2.255  51.532
54278W        W46202  39.686  45.198  49.673
54279W        W46203  10.749  28.736  51.064
54280W        W46204   9.265   4.246  51.046
54281W        W46205  10.280  21.753  50.612
54282W        W46206  44.696  16.762  50.604
54283W        W46207   6.776   6.783  52.412
54284W        W46208  43.704  32.219  51.043
54285W        W46209  14.772  41.201  51.066
54286W        W46210  13.262   8.771  53.348
54287W        W46211  41.196  19.256  50.600
54288W        W46212  33.726  38.202  53.788
54289W        W46213  22.239  21.759  50.586
54290W        W46214  16.247  24.757  49.666
54291W        W46215  42.714  18.762  49.688
54292W        W46216  21.246  32.729  51.960
54293W        W46217  37.198  26.243  52.880
54294W        W46218  42.722  40.713  50.158
54295W        W46219  23.725  42.717  51.494
54296W        W46220  45.177  34.741  49.669
54297W        W46221   7.751  27.729  49.671
54298W        W46222  47.679  30.703  52.905
54299W        W46223  47.178  38.714  51.977
54300W        W46224  34.734   0.775  53.794
54301W        W46225  23.243  21.246  49.699
54302W        W46226  13.231   8.779  52.410
54303W        W46227  20.219  36.212  51.059
54304W        W46228   4.273  35.695  52.903
54305W        W46229   8.247  46.205  49.710
54306W        W46230  37.720  32.732  52.890
54307W        W46231  44.724  32.724  50.598
54308W        W46232  32.229   0.775  51.046
54309W        W46233  26.208  35.702  50.132
54310W        W46234  12.255  14.763  53.792
54311W        W46235   1.292  45.716  52.862
54312W        W46236   4.784   7.754  51.053
54313W        W46237  18.247   8.284  51.033
54314W        W46238  13.766  15.757  53.318
54315W        W46239  28.722   9.778  51.535
54316W        W46240   8.255  21.725  53.782
54317W        W46241   7.746  36.228  49.696
54318W        W46242  13.763  13.762  51.045
54319W        W46243  42.709  43.222  52.418
54320W        W46244  16.238   4.771  52.435
54321W        W46245  17.762  44.189  52.447
54322W        W46246  24.732  19.756  50.609
54323W        W46247  15.274  13.736  50.134
54324W        W46248   8.763  31.730  51.520
54325W        W46249   7.241  34.727  52.423
54326W        W46250  13.728  34.742  53.346
54327W        W46251  29.712  24.244  50.129
54328W        W46252  38.696   0.272  51.528
54329W        W46253  20.230  24.710  52.424
54330W        W46254  20.247  36.729  53.338
54331W        W46255  11.237  48.207  52.887
54332W        W46256  29.744  45.716  51.962
54333W        W46257  47.705  25.752  51.078
54334W        W46258  21.759  42.701  51.046
54335W        W46259  22.716  46.198  51.049
54336W        W46260  44.704  17.738  53.780
54337W        W46261   4.775  42.696  53.780
54338W        W46262  35.208  12.745  51.053
54339W        W46263  13.729  29.225  49.672
54340W        W46264  19.733  30.701  49.678
54341W        W46265  43.220   5.247  51.076
54342W        W46266  18.259  15.255  52.874
54343W        W46267  19.264  17.760  51.056
54344W        W46268  12.233  10.744  52.447
54345W        W46269   2.756  40.224  51.521
54346W        W46270   1.749  28.710  51.969
54347W        W46271  43.692  17.725  50.609
54348W        W46272   2.261  13.743  50.598
54349W        W46273  37.194  15.244  50.160
54350W        W46274  27.727  32.720  52.877
54351W        W46275   3.791  13.265  51.501
54352W        W46276  20.250  12.739  49.689
54353W        W46277  32.731   6.273  50.153
54354W        W46278  45.201  28.244  53.349
54355W        W46279  14.274  15.742  52.873
54356W        W46280  38.703  14.752  51.495
54357W        W46281  18.766   3.789  49.708
54358W        W46282  13.254  19.729  50.144
54359W        W46283  27.712  21.224  51.981
54360W        W46284  43.211  10.773  50.592
54361W        W46285  43.189  23.733  52.886
54362W        W46286  22.760  17.240  51.507
54363W        W46287  38.208  31.744  53.338
54364W        W46288  17.256  27.714  52.424
54365W        W46289  45.208  27.248  51.491
54366W        W46290  13.731  42.229  49.703
54367W        W46291  33.697  46.197  51.521
54368W        W46292  28.250  31.226  51.972
54369W        W46293  31.732  11.751  51.059
54370W        W46294  28.218   8.759  51.965
54371W        W46295  31.203   9.778  51.043
54372W        W46296   5.772  33.736  53.815
54373W        W46297   9.236  36.711  49.688
54374W        W46298  22.759  19.220  53.795
54375W        W46299  28.711  42.708  52.899
54376W        W46300  44.178  23.740  53.775
54377W        W46301   6.786  40.211  52.888
54378W        W46302  17.732  30.210  50.583
54379W        W46303  38.229  18.253  51.070
54380W        W46304  19.736  39.729  49.706
54381W        W46305  29.714  16.229  53.797
54382W        W46306  46.674  23.239  53.328
54383W        W46307  18.748  24.757  52.874
54384W        W46308  34.710  27.223  52.881
54385W        W46309  36.697  16.768  53.346
54386W        W46310   8.266  30.732  53.318
54387W        W46311  45.216   3.761  51.037
54388W        W46312   5.787  43.219  52.868
54389W        W46313  19.727  33.212  52.406
54390W        W46314  23.226  26.710  51.040
54391W        W46315  17.226   2.265  51.062
54392W        W46316  22.748  32.199  49.694
54393W        W46317  42.722  33.216  52.872
54394W        W46318  21.262  35.701  51.957
54395W        W46319  31.216  29.736  52.417
54396W        W46320   3.284   6.242  51.968
54397W        W46321  42.708   1.283  52.860
54398W        W46322  38.693  21.264  52.884
54399W        W46323   7.283  44.682  52.419
54400W        W46324   0.786  26.724  51.076
54401W        W46325  48.209  23.747  52.439
54402W        W46326  48.171  32.723  50.151
54403W        W46327  10.259  32.706  50.596
54404W        W46328  32.239  24.754  50.138
54405W        W46329  20.240  35.201  53.790
54406W        W46330  41.690  46.217  52.420
54407W        W46331  11.740  47.222  50.121
54408W        W46332  47.218  28.250  53.333
54409W        W46333  36.716  18.242  51.987
54410W        W46334  11.746   4.291  52.430
54411W        W46335  44.680  45.691  52.860
54412W        W46336  20.246  17.248  52.446
54413W        W46337  22.235  39.724  49.692
54414W        W46338  15.737  11.265  52.434
54415W        W46339   6.240  26.712  51.061
54416W        W46340   8.764   4.258  51.496
54417W        W46341  38.705  32.214  52.431
54418W        W46342  18.234  40.718  50.123
54419W        W46343  19.242  14.744  53.807
54420W        W46344  20.725  16.262  50.614
54421W        W46345  26.720  41.683  53.798
54422W        W46346  36.690  47.708  49.685
54423W        W46347  13.765  28.235  51.046
54424W        W46348  11.265  31.744  51.988
54425W        W46349   2.290   0.775  52.901
54426W        W46350  39.192  41.215  50.605
54427W        W46351   6.259   0.754  53.780
54428W        W46352  27.735  26.207  52.443
54429W        W46353  25.253  40.212  51.974
54430W        W46354  29.225  22.255  49.669
54431W        W46355  14.747   1.255  51.040
54432W        W46356  11.278   2.296  53.342
54433W        W46357  15.267  14.241  53.351
54434W        W46358  10.762  10.766  51.976
54435W        W46359  26.718  35.736  51.983
54436W        W46360  32.705   7.776  53.336
54437W        W46361  35.714   3.766  51.508
54438W        W46362   0.278   0.767  51.977
54439W        W46363  41.692   5.774  53.354
54440W        W46364  43.188   8.738  52.439
54441W        W46365   7.772  19.756  50.154
54442W        W46366  36.200  36.701  50.592
54443W        W46367   0.755   7.249  52.411
54444W        W46368  31.220  37.709  50.617
54445W        W46369  35.737  30.208  53.355
54446W        W46370  18.720  13.233  53.773
54447W        W46371  18.726  33.225  53.800
54448W        W46372  18.258  29.210  53.324
54449W        W46373  39.204  44.686  52.892
54450W        W46374  48.198  15.744  51.499
54451W        W46375  11.245  19.265  51.968
54452W        W46376  32.714  39.204  53.795
54453W        W46377   5.742  32.238  53.808
54454W        W46378  33.232  43.189  50.604
54455W        W46379  36.228  39.718  52.443
54456W        W46380  45.202  45.198  52.879
54457W        W46381   7.767  13.238  52.421
54458W        W46382  12.275  23.222  50.608
54459W        W46383  46.712  14.766  53.349
54460W        W46384  21.236   8.744  50.602
54461W        W46385  33.705  29.249  49.682
54462W        W46386  12.761   2.281  50.618
54463W        W46387  35.721  29.208  50.621
54464W        W46388  18.762  24.719  49.686
54465W        W46389  20.728  27.734  50.151
54466W        W46390  31.220  42.205  51.490
54467W        W46391  34.220  12.244  52.415
54468W        W46392  47.703   2.759  53.355
54469W        W46393   0.280   5.775  51.042
54470W        W46394  23.743  39.196  53.795
54471W        W46395  27.242  33.238  50.598
54472W        W46396  36.225  44.677  53.779
54473W        W46397   5.283   3.787  51.496
54474W        W46398  30.210   3.265  53.801
54475W        W46399  17.760  25.711  50.611
54476W        W46400   1.792   2.261  51.975
54477W        W46401  39.689  45.720  53.773
54478W        W46402  43.212  16.732  49.669
54479W        W46403  40.187   6.749  51.980
54480W        W46404  10.249   6.740  50.129
54481W        W46405  19.749  29.715  52.441
54482W        W46406   3.754  18.260  49.670
54483W        W46407   9.763  48.203  50.597
54484W        W46408  16.231  35.692  49.680
54485W        W46409  14.240  24.724  50.158
54486W        W46410  19.225  14.235  53.342
54487W        W46411  33.200  47.189  53.797
54488W        W46412  32.707  41.712  52.415
54489W        W46413   7.752  42.194  51.529
54490W        W46414   4.272   9.242  51.955
54491W        W46415  43.693  19.759  53.335
54492W        W46416  12.731  32.221  53.800
54493W        W46417  44.205   7.750  51.968
54494W        W46418  44.216  38.706  50.137
54495W        W46419  19.722   6.781  52.414
54496W        W46420  23.257  16.230  53.323
54497W        W46421   4.276  25.213  53.346
54498W        W46422  12.755  45.221  51.964
54499W        W46423  27.725   2.282  50.146
54500W        W46424  38.730  36.225  52.895
54501W        W46425  24.241  18.746  52.879
54502W        W46426  35.239   6.787  52.408
54503W        W46427  14.765  11.237  52.868
54504W        W46428  12.243  20.729  50.604
54505W        W46429  13.759  14.276  51.526
54506W        W46430  20.719  16.762  51.043
54507W        W46431  46.177   1.778  51.070
54508W        W46432  44.702  33.234  51.505
54509W        W46433   5.765   2.765  51.524
54510W        W46434  25.738  31.203  52.406
54511W        W46435  10.779  47.707  51.522
54512W        W46436  12.749  10.264  51.074
54513W        W46437  37.211   8.278  53.349
54514W        W46438  13.746   1.766  53.781
54515W        W46439  21.735  27.212  51.062
54516W        W46440   5.743   6.749  53.792
54517W        W46441  29.237  36.728  50.124
54518W        W46442   4.745  19.765  51.982
54519W        W46443  32.741  37.204  50.159
54520W        W46444   8.774   1.252  51.507
54521W        W46445  26.239  45.203  51.956
54522W        W46446  37.235  41.712  52.862
54523W        W46447  39.186  43.698  50.602
54524W        W46448   8.272  22.751  51.514
54525W        W46449  40.694  13.764  51.534
54526W        W46450  47.675  12.749  53.318
54527W        W46451  13.765   3.248  51.966
54528W        W46452  17.762   0.299  52.860
54529W        W46453  45.194  42.188  51.057
54530W        W46454  28.710  18.240  52.873
54531W        W46455  42.722  38.720  53.332
54532W        W46456  15.265   1.276  51.986
54533W        W46457   8.741  28.214  52.861
54534W        W46458  39.231   8.748  53.815
54535W        W46459  38.711  24.721  53.783
54536W        W46460  28.248  36.694  52.437
54537W        W46461   6.280  25.225  52.443
54538W        W46462  17.769  13.771  50.149
54539W        W46463  39.210  16.241  51.948
54540W        W46464  34.699  45.180  52.420
54541W        W46465  12.748  10.272  50.158
54542W        W46466  26.220  25.724  52.863
54543W        W46467  16.756  48.211  53.356
54544W        W46468  23.215  28.224  50.162
54545W        W46469  26.714  36.240  53.336
54546W        W46470  46.710  22.752  49.673
54547W        W46471   4.774  33.729  52.445
54548W        W46472  33.700  40.696  50.145
54549W        W46473  48.188  26.719  52.414
54550W        W46474   2.786   7.259  53.774
54551W        W46475  24.244  20.250  53.353
54552W        W46476  10.254   1.774  53.780
54553W        W46477   3.774  37.226  52.888
54554W        W46478  36.240  30.737  52.889
54555W        W46479  30.703   1.276  51.040
54556W        W46480  21.246  47.686  53.332
54557W        W46481  43.679   4.264  53.336
54558W        W46482  37.221   2.755  51.988
54559W        W46483  38.715  36.709  49.678
54560W        W46484  13.728  36.191  52.884
54561W        W46485  44.697  38.718  53.349
54562W        W46486   6.273  39.191  51.983
54563W        W46487  32.238  23.238  52.429
54564W        W46488  46.178   7.268  52.868
54565W        W46489   1.796  44.677  50.621
54566W        W46490  42.230  19.257  50.606
54567W        W46491   8.264   6.246  50.585
54568W        W46492  40.710  14.249  53.815
54569W        W46493  23.723  17.731  53.338
54570W        W46494  20.724  13.729  52.404
54571W        W46495  24.249   8.771  53.322
54572W        W46496  26.234   5.762  50.621
54573W        W46497  38.206   7.285  51.078
54574W        W46498   9.761  38.192  49.667
54575W        W46499  31.203   4.778  51.948
54576W        W46500  42.217  45.197  49.667
54577W        W46501  18.244  46.714  49.702
54578W        W46502  32.220   8.748  53.804
54579W        W46503  27.744  32.697  51.970
54580W        W46504  34.731   1.778  50.161
54581W        W46505   6.776  27.749  50.607
54582W        W46506  22.247  40.690  50.165
54583W        W46507  12.273  12.233  53.789
54584W        W46508   7.245  44.693  51.979
54585W        W46509  43.719   1.252  51.510
54586W        W46510   3.265  31.217  53.796
54587W        W46511  43.727  45.719  50.131
54588W        W46512  17.752  18.742  50.615
54589W        W46513  22.252  30.744  50.613
54590W        W46514  12.252   1.279  52.448
54591W        W46515  43.219   3.753  51.039
54592W        W46516   1.764  34.741  51.524
54593W        W46517  12.261   1.768  53.318
54594W        W46518  14.774  12.240  52.431
54595W        W46519  33.723  17.752  52.881
54596W        W46520  45.682  17.759  50.136
54597W        W46521  32.723  30.707  50.124
54598W        W46522  41.209  35.719  51.039
54599W        W46523  41.198   2.277  52.434
54600W        W46524   5.254  38.197  51.971
54601W        W46525  47.174   9.781  51.524
54602W        W46526  46.711   6.274  53.329
54603W        W46527   0.755  19.749  52.432
54604W        W46528  34.201  12.760  51.494
54605W        W46529   6.250  33.225  52.878
54606W        W46530  43.179  39.195  52.434
54607W        W46531  11.751  43.691  53.816
54608W        W46532  22.253  36.210  53.782
54609W        W46533  25.748  21.716  52.418
54610W        W46534  37.191  31.220  51.947
54611W        W46535  22.759  32.226  51.987
54612W        W46536  30.745   3.285  52.446
54613W        W46537   4.261  11.249  51.962
54614W        W46538  24.232  44.220  51.072
54615W        W46539   9.281  37.723  51.073
54616W        W46540   0.755  33.201  49.692
54617W        W46541   6.256  38.205  51.047
54618W        W46542  43.181  22.718  52.860
54619W        W46543   1.260  42.681  49.688
54620W        W46544  21.730  21.260  49.674
54621W        W46545  14.243  25.736  50.125
54622W        W46546  26.746  43.188  51.491
54623W        W46547   3.277  17.238  52.407
54624W        W46548   7.245   4.791  49.678
54625W        W46549   5.279  10.274  51.984
54626W        W46550   5.751  22.729  52.422
54627W        W46551  20.265  43.682  50.614
54628W        W46552  36.692   1.269  53.793
54629W        W46553  48.218  42.687  53.339
54630W        W46554  29.706  34.734  52.431
54631W        W46555  10.762  30.235  53.817
54632W        W46556   9.757  31.229  49.707
54633W        W46557  19.761  15.756  51.041
54634W        W46558  34.726  15.770  51.054
54635W        W46559  46.191  13.262  50.143
54636W        W46560  22.748  18.757  52.408
54637W        W46561  38.706  16.247  50.589
54638W        W46562  29.228   7.764  52.868
54639W        W46563  26.220   8.247  53.349
54640W        W46564  11.280  45.685  50.599
54641W        W46565  24.217  41.703  51.534
54642W        W46566  17.237   4.786  51.490
54643W        W46567   7.259   7.778  49.695
54644W        W46568   1.769  27.738  52.435
54645W        W46569   2.253  48.173  49.705
54646W        W46570   6.256  39.725  51.065
54647W        W46571  33.213  18.728  51.534
54648W        W46572   2.281  44.705  49.706
54649W        W46573  36.214   6.763  53.782
54650W        W46574  39.207  13.752  50.126
54651W        W46575  41.220  40.712  53.334
54652W        W46576  31.199  17.754  52.861
54653W        W46577  41.722  11.738  50.132
54654W        W46578  14.732   5.745  50.604
54655W        W46579  31.229  22.753  50.135
54656W        W46580   4.743  29.705  52.422
54657W        W46581  28.718  30.728  49.700
54658W        W46582  48.199  11.236  53.326
54659W        W46583  17.755  30.248  49.693
54660W        W46584  17.738   8.272  49.693
54661W        W46585  37.724  43.218  52.870
54662W        W46586  33.737  39.188  51.521
54663W        W46587  10.238  17.767  51.960
54664W        W46588  27.241   2.764  51.076
54665W        W46589  24.250  43.682  53.348
54666W        W46590  17.761  13.239  53.789
54667W        W46591   7.742  28.236  51.532
54668W        W46592   0.773  36.203  52.428
54669W        W46593  29.703  13.742  50.610
54670W        W46594  29.722  11.734  50.613
54671W        W46595  13.734  12.231  50.599
54672W        W46596  46.206  38.211  49.667
54673W        W46597  34.740   4.254  51.508
54674W        W46598   8.747  41.718  49.694
54675W        W46599  17.757  15.745  53.802
54676W        W46600   0.287  45.678  53.326
54677W        W46601  28.708  20.758  53.775
54678W        W46602  43.697   9.237  52.444
54679W        W46603   0.793  44.725  53.783
54680W        W46604  12.264  30.748  50.597
54681W        W46605   2.785  23.738  53.816
54682W        W46606  44.202  32.214  52.873
54683W        W46607  45.678  16.259  51.053
54684W        W46608  41.206  27.721  53.354
54685W        W46609   2.283  41.707  53.794
54686W        W46610  18.750  11.734  53.343
54687W        W46611  17.723  25.723  51.958
54688W        W46612  13.762  24.746  53.354
54689W        W46613   8.743  43.679  53.338
54690W        W46614  34.234  34.197  49.691
54691W        W46615  18.223  43.192  51.947
54692W        W46616  12.256  15.766  50.584
54693W        W46617  44.718  36.201  53.347
54694W        W46618  24.238   0.295  52.874
54695W        W46619  47.174  11.770  53.775
54696W        W46620   1.282  33.735  51.976
54697W        W46621  24.716  25.232  52.434
54698W        W46622  21.232  14.733  49.684
54699W        W46623  18.247  33.697  53.342
54700W        W46624  13.741   1.757  50.615
54701W        W46625  33.720   2.276  50.135
54702W        W46626   4.293  26.726  50.145
54703W        W46627  13.760  16.232  51.515
54704W        W46628  25.235  28.222  51.988
54705W        W46629   2.776   7.247  52.880
54706W        W46630  43.707  13.253  51.971
54707W        W46631  17.240  31.206  51.988
54708W        W46632  42.720  27.244  51.952
54709W        W46633  23.233  45.186  52.897
54710W        W46634  20.240  14.727  53.799
54711W        W46635  47.699  36.210  51.076
54712W        W46636  28.225  30.724  49.670
54713W        W46637  41.723  13.256  53.808
54714W        W46638  20.737  11.235  49.675
54715W        W46639  31.721  36.200  50.134
54716W        W46640   7.784  29.703  51.976
54717W        W46641  47.684   8.258  51.520
54718W        W46642   2.774  27.208  53.359
54719W        W46643  18.722  10.255  53.778
54720W        W46644  28.707  10.733  50.156
54721W        W46645   1.790  39.730  53.325
54722W        W46646   6.249   3.276  49.676
54723W        W46647  34.237  45.719  52.420
54724W        W46648   4.258   4.253  53.356
54725W        W46649  18.743  40.691  49.697
54726W        W46650  26.729  20.725  52.419
54727W        W46651  30.234  33.228  50.586
54728W        W46652   3.269   1.795  53.780
54729W        W46653  37.721  32.225  51.058
54730W        W46654  41.725  38.721  50.138
54731W        W46655  39.201  36.734  51.038
54732W        W46656   2.269  19.254  52.902
54733W        W46657  25.240   1.283  53.316
54734W        W46658  21.247  35.717  50.165
54735W        W46659  25.723   7.248  53.786
54736W        W46660  41.203  43.713  51.985
54737W        W46661   5.761   5.769  50.158
54738W        W46662   7.781  45.679  52.447
54739W        W46663   5.768   4.757  52.879
54740W        W46664  42.226  18.719  52.881
54741W        W46665   2.773  36.722  51.498
54742W        W46666  16.235  30.748  53.317
54743W        W46667  15.248  28.743  51.981
54744W        W46668  14.753  47.178  52.432
54745W        W46669  36.719  38.727  50.166
54746W        W46670  15.752  30.204  49.679
54747W        W46671  23.214  31.699  51.074
54748W        W46672   5.773  40.684  50.594
54749W        W46673  45.715  30.201  50.613
54750W        W46674  28.245  42.230  53.340
54751W        W46675  18.262  14.774  52.427
54752W        W46676  13.257  14.261  52.417
54753W        W46677  18.742   6.242  51.505
54754W        W46678  43.225  10.735  51.522
54755W        W46679  17.251  29.240  51.530
54756W        W46680  21.734  21.730  53.803
54757W        W46681  31.202  12.263  49.701
54758W        W46682  22.242  13.268  51.516
54759W        W46683   0.798  11.775  51.059
54760W        W46684  17.729  14.257  53.815
54761W        W46685  14.267  18.736  51.061
54762W        W46686   0.272  16.239  49.664
54763W        W46687  44.713  23.248  50.599
54764W        W46688   2.781  39.716  53.817
54765W        W46689  47.718  17.759  50.595
54766W        W46690  35.232  21.258  50.146
54767W        W46691  16.228  23.715  53.817
54768W        W46692   3.771  41.690  50.161
54769W        W46693  28.739  40.695  52.437
54770W        W46694  16.733  28.735  53.328
54771W        W46695  37.706  12.772  49.682
54772W        W46696  33.715   6.265  53.778
54773W        W46697   1.257  31.712  51.075
54774W        W46698  36.216  42.210  50.133
54775W        W46699  41.724  18.231  52.869
54776W        W46700   5.751   6.266  52.880
54777W        W46701  39.690  10.741  53.336
54778W        W46702  45.694   9.761  51.063
54779W        W46703  46.698  29.710  51.988
54780W        W46704  48.205   4.251  50.590
54781W        W46705  13.772  21.749  50.133
54782W        W46706  35.708  39.194  50.121
54783W        W46707  37.212  17.260  51.048
54784W        W46708  39.732   1.793  53.797
54785W        W46709  37.191  44.184  51.968
54786W        W46710  45.196  24.748  53.355
54787W        W46711  48.199  45.218  51.064
54788W        W46712  47.182  48.187  52.430
54789W        W46713  23.734  25.736  51.946
54790W        W46714  12.769  38.691  50.596
54791W        W46715  11.779  45.692  51.501
54792W        W46716   4.264   7.271  52.405
54793W        W46717  16.759  11.767  50.134
54794W        W46718  32.739   6.281  52.884
54795W        W46719  30.243  35.241  51.498
54796W        W46720  42.217  27.714  51.071
54797W        W46721  23.758   1.765  53.813
54798W        W46722  12.249  37.217  51.505
54799W        W46723  36.732   9.275  49.682
54800W        W46724  12.766  17.770  53.794
54801W        W46725  29.251  13.771  50.611
54802W        W46726  43.703  35.691  53.794
54803W        W46727  29.217   6.273  50.126
54804W        W46728  45.718  24.219  52.865
54805W        W46729  29.736  47.678  52.411
54806W        W46730  13.265  46.697  52.896
54807W        W46731  35.737  38.731  53.797
54808W        W46732  41.718  21.729  51.035
54809W        W46733   0.760   2.763  50.606
54810W        W46734  32.237  21.734  53.328
54811W        W46735  25.730  44.179  50.607
54812W        W46736   7.262   5.269  51.064
54813W        W46737  19.240   7.281  50.156
54814W        W46738  19.724   3.291  51.980
54815W        W46739  26.230  19.233  51.511
54816W        W46740  46.208   6.248  50.606
54817W        W46741  26.750   8.755  51.985
54818W        W46742  13.733   5.269  50.130
54819W        W46743  36.213  29.702  50.160
54820W        W46744  27.731  31.211  53.328
54821W        W46745  44.193  46.185  52.871
54822W        W46746  39.719  16.251  50.597
54823W        W46747  10.274  43.209  50.598
54824W        W46748  18.246  42.728  50.166
54825W        W46749  48.205  43.196  51.953
54826W        W46750  28.745  41.681  50.584
54827W        W46751  18.760  47.674  50.140
54828W        W46752  17.231   8.774  50.145
54829W        W46753  15.244  34.198  51.531
54830W        W46754  42.721  47.713  52.895
54831W        W46755  19.758   5.270  51.982
54832W        W46756  46.688   2.247  53.354
54833W        W46757  41.694   6.251  50.578
54834W        W46758  19.241  38.229  49.697
54835W        W46759  36.703   4.264  49.698
54836W        W46760   9.781  42.206  51.061
54837W        W46761  30.213  44.214  50.154
54838W        W46762   8.784  35.235  53.796
54839W        W46763   7.775  35.711  52.899
54840W        W46764  10.761  25.749  50.611
54841W        W46765  48.186  40.219  50.146
54842W        W46766  37.735  35.718  51.491
54843W        W46767  25.720  20.262  51.492
54844W        W46768  21.737  11.245  49.678
54845W        W46769  45.698  10.278  51.503
54846W        W46770  19.238  17.741  51.535
54847W        W46771  11.771  45.697  53.809
54848W        W46772  44.202  27.737  49.686
54849W        W46773  27.212  18.263  53.789
54850W        W46774  28.226  31.731  51.500
54851W        W46775  36.695  25.729  50.146
54852W        W46776  27.710  18.224  51.076
54853W        W46777  11.279   1.753  50.165
54854W        W46778  38.705  12.752  49.685
54855W        W46779  30.710  10.240  52.438
54856W        W46780  43.716  19.764  52.443
54857W        W46781  35.695  22.250  53.351
54858W        W46782  35.216   1.767  51.971
54859W        W46783  30.710  33.737  52.875
54860W        W46784  19.239  47.206  52.892
54861W        W46785  14.273  22.753  52.890
54862W        W46786  22.228  34.215  53.340
54863W        W46787  20.739  42.192  51.518
54864W        W46788  28.236  37.712  53.348
54865W        W46789  47.214  19.260  53.802
54866W        W46790  23.745  18.725  50.158
54867W        W46791  34.697  36.697  52.405
54868W        W46792  14.240  44.724  51.992
54869W        W46793  22.735  43.680  50.124
54870W        W46794  19.746  26.734  50.162
54871W        W46795  27.737  44.706  53.781
54872W        W46796  33.217   9.281  51.078
54873W        W46797  13.768  25.730  51.499
54874W        W46798   3.767   1.278  51.070
54875W        W46799   0.780   0.773  51.512
54876W        W46800  21.251  25.233  51.040
54877W        W46801  23.214  10.738  53.814
54878W        W46802   6.275  30.211  50.591
54879W        W46803  16.740   1.751  51.987
54880W        W46804  29.732  45.222  52.880
54881W        W46805  35.197  12.774  53.318
54882W        W46806  39.708  32.206  51.498
54883W        W46807  15.239  38.688  52.430
54884W        W46808   0.279  44.686  51.973
54885W        W46809  43.216   7.287  50.593
54886W        W46810  26.737  11.747  53.361
54887W        W46811  44.205   7.741  52.419
54888W        W46812  23.757  25.715  52.892
54889W        W46813  29.738  38.732  52.421
54890W        W46814  42.691  38.710  49.702
54891W        W46815   3.785  23.254  53.790
54892W        W46816  35.695  41.702  50.577
54893W        W46817   1.253  28.707  50.151
54894W        W46818  21.227  22.735  53.351
54895W        W46819  14.753   1.788  51.966
54896W        W46820   4.780  42.695  50.143
54897W        W46821  42.227  24.758  52.889
54898W        W46822  28.730  25.731  51.985
54899W        W46823  47.701  31.211  52.443
54900W        W46824  44.685   7.239  50.155
54901W        W46825  34.720  25.212  51.504
54902W        W46826  46.711  23.226  51.518
54903W        W46827   9.769  22.717  51.508
54904W        W46828  48.204  40.233  51.947
54905W        W46829  12.736  10.759  53.778
54906W        W46830  28.221  44.724  50.151
54907W        W46831  21.238   9.268  52.406
54908W        W46832  22.243  39.212  53.337
54909W        W46833  21.228  24.252  51.055
54910W        W46834  12.260  42.686  53.798
54911W        W46835  29.738  45.193  50.593
54912W        W46836   4.282  44.200  51.507
54913W        W46837  46.693   9.747  52.895
54914W        W46838  17.723   9.263  53.335
54915W        W46839  16.727   0.294  50.594
54916W        W46840   8.264  34.202  51.968
54917W        W46841  28.708  33.708  51.513
54918W        W46842  27.720  20.224  51.071
54919W        W46843  15.232  22.729  53.359
54920W        W46844  15.735  33.227  51.075
54921W        W46845  23.759  39.692  52.412
54922W        W46846  46.217  11.247  49.706
54923W        W46847  34.715   5.744  51.951
54924W        W46848  32.726  35.725  51.070
54925W        W46849  44.701  42.685  49.699
54926W        W46850  18.243  14.755  49.680
54927W        W46851   3.279  16.734  53.358
54928W        W46852   0.750  46.201  50.151
54929W        W46853  13.232  46.188  50.124
54930W        W46854   8.759  46.688  52.414
54931W        W46855  28.719   6.285  51.952
54932W        W46856  37.688  37.208  52.904
54933W        W46857  16.725  29.238  52.444
54934W        W46858   1.264  19.258  49.698
54935W        W46859  38.714  42.718  52.882
54936W        W46860  37.221  12.243  50.603
54937W        W46861  36.727  20.248  51.061
54938W        W46862  34.233  16.755  49.694
54939W        W46863   5.754   5.762  51.978
54940W        W46864  30.243  13.234  52.408
54941W        W46865   7.753  13.752  53.798
54942W        W46866   7.239   8.252  50.580
54943W        W46867  16.765  43.722  51.066
54944W        W46868  32.729   0.767  50.140
54945W        W46869  21.717  32.705  51.504
54946W        W46870  10.738  34.216  51.493
54947W        W46871  10.253   0.756  52.875
54948W        W46872  29.717  37.225  53.321
54949W        W46873  15.246  13.278  53.354
54950W        W46874   5.765  45.675  53.809
54951W        W46875  26.208   3.756  53.317
54952W        W46876  14.254  35.206  53.802
54953W        W46877  47.695  27.220  52.886
54954W        W46878  42.702  21.216  50.131
54955W        W46879  19.748  12.277  52.863
54956W        W46880  15.764  15.732  53.786
54957W        W46881   9.746  10.782  49.673
54958W        W46882   9.248  38.220  50.139
54959W        W46883  40.228  32.724  53.356
54960W        W46884  29.748  19.763  51.052
54961W        W46885  17.769   4.282  51.063
54962W        W46886  12.239  20.749  50.164
54963W        W46887  42.225   2.761  50.148
54964W        W46888   1.759  36.725  53.813
54965W        W46889  41.230  45.721  51.992
54966W        W46890  20.752  29.721  51.514
54967W        W46891  37.714  14.745  50.148
54968W        W46892   7.780  18.266  51.525
54969W        W46893   1.795  20.248  50.606
54970W        W46894   5.743   3.264  49.692
54971W        W46895  20.262   5.772  50.149
54972W        W46896  43.183  33.728  51.968
54973W        W46897  25.724  40.719  51.986
54974W        W46898   0.794  12.251  51.503
54975W        W46899  23.758   4.252  53.354
54976W        W46900   2.250  35.213  51.044
54977W        W46901  42.186  21.749  49.682
54978W        W46902  23.249  13.777  51.515
54979W        W46903  43.227  47.672  51.039
54980W        W46904   0.296  32.734  50.581
54981W        W46905  22.224  26.750  51.066
54982W        W46906   6.285   7.747  50.588
54983W        W46907   9.774  35.210  50.123
54984W        W46908  45.189   7.780  50.130
54985W        W46909   5.248  14.241  53.777
54986W        W46910  38.227  43.217  52.411
54987W        W46911  12.251  35.712  51.527
54988W        W46912   8.285  41.183  49.677
54989W        W46913  13.766   7.249  51.055
54990W        W46914  31.706  26.215  51.058
54991W        W46915   9.736  29.236  49.674
54992W        W46916  29.702  40.687  52.442
54993W        W46917  35.239  34.206  52.418
54994W        W46918  18.749  27.714  53.326
54995W        W46919  26.236  16.744  51.504
54996W        W46920   7.260  34.693  52.874
54997W        W46921  15.233  18.764  52.862
54998W        W46922   4.250  42.686  52.440
54999W        W46923  24.713  34.203  51.516
55000W        W46924  34.222  46.180  50.586
55001W        W46925  16.265  27.733  53.348
55002W        W46926  43.697  34.205  51.954
55003W        W46927  44.220   8.736  49.696
55004W        W46928   1.787  37.219  51.511
55005W        W46929  25.224   2.264  50.154
55006W        W46930  47.210  48.200  52.876
55007W        W46931  29.224  44.211  50.150
55008W        W46932  38.691  30.725  49.709
55009W        W46933  17.723  10.776  50.125
55010W        W46934  38.719  46.680  51.986
55011W        W46935   0.294  33.744  51.506
55012W        W46936   7.266   6.756  50.147
55013W        W46937  37.193   6.749  53.804
55014W        W46938  23.760  35.713  52.879
55015W        W46939  28.222  20.226  49.670
55016W        W46940  47.215  19.729  49.666
55017W        W46941  18.230  35.236  50.618
55018W        W46942  16.754  39.223  51.527
55019W        W46943  27.724  33.741  52.416
55020W        W46944   7.243  39.714  51.950
55021W        W46945  15.248  40.727  53.316
55022W        W46946   8.744   5.748  50.617
55023W        W46947  42.190  17.755  51.062
55024W        W46948   4.280   0.279  53.338
55025W        W46949   9.764  24.244  53.327
55026W        W46950  28.712  44.213  51.977
55027W        W46951  21.235   2.265  53.798
55028W        W46952  21.729   8.743  49.670
55029W        W46953  46.207  19.263  52.448
55030W        W46954   9.270  36.724  53.330
55031W        W46955  11.252  40.189  51.953
55032W        W46956  37.736   6.243  50.600
55033W        W46957   1.256  38.216  53.360
55034W        W46958  35.709  46.220  52.447
55035W        W46959  19.731  12.247  53.328
55036W        W46960   7.770  13.246  51.058
55037W        W46961  10.250  36.737  51.072
55038W        W46962  22.751  41.688  53.328
55039W        W46963  28.209  45.202  53.319
55040W        W46964  48.187  21.734  52.904
55041W        W46965  28.717  16.230  53.784
55042W        W46966   2.267  11.750  50.607
55043W        W46967  19.756  15.255  53.783
55044W        W46968  46.695  12.741  51.990
55045W        W46969  37.206  41.215  53.789
55046W        W46970  33.699  13.772  50.132
55047W        W46971  21.751  15.771  50.622
55048W        W46972  48.197  21.247  51.983
55049W        W46973  12.763  26.230  52.403
55050W        W46974  40.189  37.710  52.900
55051W        W46975  15.248  10.277  51.956
55052W        W46976  36.711  23.224  49.687
55053W        W46977  25.737   3.286  52.901
55054W        W46978  21.248  47.710  51.950
55055W        W46979  36.704  25.727  52.897
55056W        W46980  19.250  35.726  53.324
55057W        W46981  42.701  26.237  53.338
55058W        W46982   6.241  42.709  50.159
55059W        W46983   2.254   6.772  52.883
55060W        W46984  13.275   0.785  49.670
55061W        W46985  42.706  29.209  50.135
55062W        W46986  11.765   4.270  52.865
55063W        W46987  38.195   4.250  51.046
55064W        W46988  35.723   6.284  50.139
55065W        W46989  18.747  17.738  52.900
55066W        W46990  24.211   6.784  50.599
55067W        W46991  45.715   6.782  51.518
55068W        W46992  29.728  32.736  51.531
55069W        W46993  31.700  15.241  51.967
55070W        W46994  38.723  24.744  50.164
55071W        W46995  14.266  36.723  49.709
55072W        W46996  34.706  17.732  50.127
55073W        W46997  31.232  43.219  52.903
55074W        W46998  46.208  45.695  51.034
55075W        W46999  19.719  34.213  53.772
55076W        W47000  33.202  45.201  50.620
55077W        W47001  23.715  35.226  52.413
55078W        W47002   8.261  31.743  52.444
55079W        W47003  13.729  24.237  51.516
55080W        W47004  28.711   8.751  52.446
55081W        W47005  35.721  42.221  51.501
55082W        W47006   0.251  30.234  53.801
55083W        W47007  20.237   7.766  51.506
55084W        W47008  46.675  45.211  51.534
55085W        W47009   4.789  14.271  52.904
55086W        W47010   9.277  29.237  49.677
55087W        W47011  45.714  14.252  53.810
55088W        W47012  35.239  44.218  52.410
55089W        W47013  17.252  33.206  51.500
55090W        W47014   2.794   3.272  53.340
55091W        W47015  30.217  34.735  51.502
55092W        W47016  33.719  41.705  51.959
55093W        W47017  11.270  37.717  52.427
55094W        W47018  18.756  29.749  51.533
55095W        W47019   2.263  38.232  52.429
55096W        W47020  33.743  30.231  52.884
55097W        W47021  17.235   7.274  52.446
55098W        W47022   1.295  42.683  51.974
55099W        W47023  16.763  23.245  51.959
55100W        W47024  47.179   5.259  50.586
55101W        W47025  15.229  30.700  52.860
55102W        W47026   3.780  42.213  52.886
55103W        W47027  14.748  13.772  50.122
55104W        W47028  17.762  42.184  52.413
55105W        W47029   8.239  20.719  52.406
55106W        W47030  22.258   0.781  52.903
55107W        W47031   2.282  10.237  52.423
55108W        W47032  31.739   6.276  51.968
55109W        W47033   5.266  21.265  53.795
55110W        W47034  12.273  29.233  52.409
55111W        W47035  22.262   7.258  51.036
55112W        W47036  37.721   7.771  49.668
55113W        W47037  44.705  21.256  51.520
55114W        W47038  44.190  11.242  52.870
55115W        W47039  32.715  22.240  53.796
55116W        W47040  18.261  35.234  50.138
55117W        W47041   5.264   4.283  49.687
55118W        W47042  24.716  15.726  51.951
55119W        W47043  42.211   2.278  51.071
55120W        W47044  39.734  19.227  51.072
55121W        W47045  41.724  37.238  53.774
55122W        W47046  26.221   7.258  49.697
55123W        W47047  33.227  32.245  52.447
55124W        W47048  43.678   1.782  53.352
55125W        W47049  34.200  44.714  49.679
55126W        W47050  32.722  37.231  49.700
55127W        W47051  29.236   6.778  53.330
55128W        W47052   2.751  46.209  52.416
55129W        W47053  31.724  12.754  50.579
55130W        W47054  20.227  18.223  52.892
55131W        W47055   7.266  36.706  51.520
55132W        W47056  23.717  42.216  49.681
55133W        W47057  26.255  34.722  51.976
55134W        W47058  31.214  17.738  49.705
55135W        W47059  44.714   1.270  51.520
55136W        W47060   2.792   2.261  53.781
55137W        W47061  28.722   5.787  53.788
55138W        W47062  40.726  47.710  52.902
55139W        W47063  46.718  29.235  53.781
55140W        W47064  17.252  47.176  51.069
55141W        W47065   1.750  10.775  53.329
55142W        W47066  31.719  11.267  52.444
55143W        W47067  28.238   8.248  50.137
55144W        W47068   4.291  39.214  53.789
55145W        W47069  45.696   4.779  51.036
55146W        W47070   7.775  21.255  52.894
55147W        W47071  22.739   8.740  52.868
55148W        W47072  46.185  19.232  53.348
55149W        W47073   7.740  12.265  53.328
55150W        W47074  34.223   7.743  51.068
55151W        W47075  18.231  28.721  53.317
55152W        W47076  18.220  45.179  51.052
55153W        W47077   2.276  18.723  50.616
55154W        W47078  28.750  11.766  53.790
55155W        W47079  32.217  22.715  51.522
55156W        W47080  48.180  39.223  53.329
55157W        W47081  12.734  29.717  51.974
55158W        W47082  39.199  37.213  50.146
55159W        W47083   4.256   6.245  50.134
55160W        W47084  46.718  45.183  52.430
55161W        W47085  33.203   4.245  51.497
55162W        W47086  23.713  27.731  50.615
55163W        W47087  24.743  27.719  51.950
55164W        W47088  17.271  41.197  51.037
55165W        W47089  38.227  27.706  49.690
55166W        W47090  48.185  16.235  49.687
55167W        W47091  39.699  47.699  53.357
55168W        W47092  15.231  30.738  49.675
55169W        W47093   4.293  12.746  53.800
55170W        W47094  32.232  40.186  51.048
55171W        W47095   5.242  46.195  51.065
55172W        W47096  44.693   2.268  50.161
55173W        W47097  29.750  48.213  50.140
55174W        W47098  25.221  30.241  52.895
55175W        W47099  18.263  42.210  51.493
55176W        W47100  29.210  20.257  52.428
55177W        W47101  19.767  33.697  53.798
55178W        W47102  18.247   4.263  51.514
55179W        W47103  15.266  41.208  51.056
55180W        W47104   4.769  11.252  51.524
55181W        W47105   1.787  44.183  51.980
55182W        W47106  40.711  24.229  50.606
55183W        W47107  11.770  18.761  51.071
55184W        W47108  38.712  11.266  53.777
55185W        W47109   7.767   9.751  50.157
55186W        W47110  27.749  40.719  51.972
55187W        W47111  19.236  17.763  52.862
55188W        W47112  17.251  16.768  51.511
55189W        W47113  18.242   3.745  52.414
55190W        W47114  19.246  39.214  50.611
55191W        W47115  13.775   9.748  51.041
55192W        W47116   6.741  11.739  53.808
55193W        W47117   0.269   6.741  51.955
55194W        W47118  46.704  28.223  52.893
55195W        W47119  33.741  44.221  51.076
55196W        W47120  22.727  39.702  49.696
55197W        W47121  32.208  14.259  51.957
55198W        W47122   9.752  24.727  53.353
55199W        W47123  32.720  33.236  51.961
55200W        W47124  36.197  28.214  52.867
55201W        W47125  17.240  21.748  50.161
55202W        W47126  26.726   4.256  51.972
55203W        W47127  16.225  19.243  51.992
55204W        W47128  42.682   8.250  53.320
55205W        W47129   5.750  31.228  51.528
55206W        W47130  18.754   1.771  53.332
55207W        W47131  15.761   2.765  50.148
55208W        W47132  19.225  44.694  52.895
55209W        W47133  40.697   4.250  53.789
55210W        W47134  16.246  16.759  51.987
55211W        W47135  32.229   5.246  52.864
55212W        W47136   9.273  47.194  52.862
55213W        W47137   5.290  34.228  49.674
55214W        W47138  42.683  31.241  53.817
55215W        W47139  19.736  44.205  50.594
55216W        W47140  40.698  34.727  50.155
55217W        W47141  32.215  34.705  49.707
55218W        W47142  15.728  16.268  51.522
55219W        W47143  38.725  16.761  52.440
55220W        W47144  20.731  42.182  53.813
55221W        W47145  11.260  47.198  51.076
55222W        W47146  22.257   0.286  49.710
55223W        W47147  11.757   0.795  51.974
55224W        W47148  15.739  30.731  52.902
55225W        W47149   7.248   0.795  52.881
55226W        W47150  36.232  14.728  52.882
55227W        W47151  23.252   6.762  49.677
55228W        W47152  27.220  47.198  50.608
55229W        W47153  24.219  22.733  51.964
55230W        W47154  26.228   5.281  51.528
55231W        W47155  22.761  44.716  50.622
55232W        W47156  36.235   9.269  49.703
55233W        W47157  11.234  11.742  50.614
55234W        W47158  46.191  10.244  49.685
55235W        W47159   6.748  45.695  50.151
55236W        W47160  38.730  10.772  53.352
55237W        W47161  21.225  30.715  51.492
55238W        W47162  21.753  17.749  53.773
55239W        W47163   9.771  31.225  51.512
55240W        W47164  35.231  13.743  53.794
55241W        W47165  41.193  33.697  50.162
55242W        W47166  10.765  25.224  51.977
55243W        W47167  46.208  30.224  52.411
55244W        W47168   8.255  18.734  53.360
55245W        W47169  35.217   0.281  51.991
55246W        W47170  29.237  25.754  51.515
55247W        W47171  19.224  11.762  49.707
55248W        W47172   8.248  25.211  51.531
55249W        W47173  26.746  29.704  49.680
55250W        W47174   4.789  30.242  53.804
55251W        W47175  41.685  30.707  52.905
55252W        W47176   6.746  22.213  53.798
55253W        W47177  25.228  19.248  52.861
55254W        W47178  38.687   3.751  52.424
55255W        W47179   2.763   9.776  53.794
55256W        W47180   3.285  28.224  52.881
55257W        W47181  48.213  39.697  50.164
55258W        W47182  22.254  43.204  49.693
55259W        W47183  13.273  35.229  50.596
55260W        W47184  38.735   2.284  52.405
55261W        W47185  13.260  38.694  50.145
55262W        W47186  15.273  15.758  53.796
55263W        W47187  10.736  32.229  53.353
55264W        W47188   1.753  26.726  51.527
55265W        W47189   1.761  10.269  53.774
55266W        W47190  43.213  27.742  51.502
55267W        W47191   9.767  25.717  51.979
55268W        W47192  14.228  21.720  51.495
55269W        W47193   8.254  21.726  50.603
55270W        W47194  28.717  20.742  52.879
55271W        W47195  36.222   8.769  51.947
55272W        W47196  45.193  32.199  51.983
55273W        W47197   0.265  44.718  53.356
55274W        W47198  20.250  11.742  51.956
55275W        W47199  10.234  13.272  51.516
55276W        W47200  24.216   5.764  53.338
55277W        W47201  32.701  23.733  52.443
55278W        W47202  39.714  12.253  50.123
55279W        W47203  23.751  44.186  50.600
55280W        W47204  18.249   1.286  51.492
55281W        W47205  38.692  40.231  51.958
55282W        W47206  13.757  10.736  51.520
55283W        W47207  47.697  10.237  50.166
55284W        W47208  15.265  32.729  51.528
55285W        W47209  27.745  14.756  53.779
55286W        W47210  11.749  34.224  53.326
55287W        W47211   4.282  36.718  50.598
55288W        W47212  34.718  19.719  52.405
55289W        W47213  13.265  41.183  52.899
55290W        W47214  30.729   1.256  50.138
55291W        W47215   2.296   6.243  53.774
55292W        W47216  29.708  40.223  50.584
55293W        W47217   5.284  19.267  52.905
55294W        W47218  40.231  46.679  51.498
55295W        W47219   2.266  11.765  52.871
55296W        W47220  42.199  38.702  51.961
55297W        W47221  13.769  36.220  52.423
55298W        W47222   6.280   4.260  50.578
55299W        W47223  33.223   2.270  52.898
55300W        W47224  37.192  22.262  51.963
55301W        W47225  28.734  36.729  51.048
55302W        W47226  17.734  38.207  52.896
55303W        W47227   7.288  45.693  51.960
55304W        W47228  14.760  43.182  53.796
55305W        W47229  45.688  43.694  51.948
55306W        W47230   4.277  15.772  51.490
55307W        W47231  48.209  38.198  53.338
55308W        W47232  36.717  47.199  51.044
55309W        W47233  19.231  18.233  51.971
55310W        W47234  20.259  48.213  51.040
55311W        W47235   5.291  12.254  52.403
55312W        W47236  42.212  29.749  51.070
55313W        W47237  13.264  12.773  51.967
55314W        W47238  28.739  46.688  52.432
55315W        W47239  10.774  26.254  52.903
55316W        W47240  14.260  45.683  53.816
55317W        W47241  10.761   3.281  50.600
55318W        W47242  21.218  12.734  53.327
55319W        W47243  25.255  46.191  52.447
55320W        W47244  41.713  10.747  51.979
55321W        W47245  44.690  13.750  50.158
55322W        W47246  44.722  14.740  53.328
55323W        W47247  10.271  14.258  53.355
55324W        W47248  28.213  13.730  53.811
55325W        W47249   0.258  12.259  51.524
55326W        W47250  22.251  42.706  50.618
55327W        W47251   8.737  40.713  51.049
55328W        W47252   6.765  15.241  51.070
55329W        W47253  27.207  45.712  50.146
55330W        W47254  45.215  46.685  51.040
55331W        W47255  14.761  42.208  53.781
55332W        W47256  46.208  28.222  51.493
55333W        W47257  13.250   7.238  50.606
55334W        W47258  39.714  17.769  51.534
55335W        W47259  23.742   1.768  51.075
55336W        W47260   7.284   7.742  50.161
55337W        W47261   4.786   2.789  49.665
55338W        W47262  15.756  25.727  52.892
55339W        W47263  22.240  13.733  53.317
55340W        W47264  17.742   4.751  53.323
55341W        W47265   1.277  20.730  51.051
55342W        W47266  22.217  18.763  53.797
55343W        W47267  13.231   5.249  53.337
55344W        W47268  44.695  17.736  50.131
55345W        W47269  47.680   4.766  49.709
55346W        W47270  12.238  18.230  50.595
55347W        W47271   4.782   7.265  52.437
55348W        W47272  48.214  46.676  50.164
55349W        W47273  34.711  10.775  52.414
55350W        W47274  17.265  41.715  52.899
55351W        W47275  45.198  21.223  53.805
55352W        W47276  43.702  31.741  51.043
55353W        W47277  33.702  42.694  50.123
55354W        W47278  28.741  10.266  49.696
55355W        W47279  37.198  29.719  49.666
55356W        W47280  26.748  28.240  52.889
55357W        W47281  31.201  37.218  50.612
55358W        W47282   5.751  45.211  51.496
55359W        W47283  16.735   6.743  50.127
55360W        W47284  16.267  12.771  51.044
55361W        W47285  46.222   0.258  52.882
55362W        W47286  30.249  14.240  49.676
55363W        W47287  39.731   5.762  51.506
55364W        W47288   5.276  26.726  53.331
55365W        W47289  35.715  16.751  51.991
55366W        W47290  33.736   1.792  51.509
55367W        W47291  23.723  31.709  51.041
55368W        W47292  48.206  48.211  50.145
55369W        W47293   8.272  17.223  49.681
55370W        W47294  15.727  35.212  53.784
55371W        W47295   9.758  19.721  51.069
55372W        W47296  34.694   2.264  52.895
55373W        W47297   6.278  31.231  51.963
55374W        W47298  32.230  33.223  50.606
55375W        W47299  36.217  16.763  49.693
55376W        W47300   2.776  21.735  51.951
55377W        W47301   7.749  34.705  53.779
55378W        W47302   7.762  41.713  53.361
55379W        W47303  37.691   3.784  51.985
55380W        W47304  45.186   0.266  49.678
55381W        W47305  10.782   3.760  51.976
55382W        W47306  44.678  32.233  53.324
55383W        W47307  43.219  17.269  52.422
55384W        W47308  40.709  38.691  51.519
55385W        W47309   8.763   0.265  51.035
55386W        W47310  39.694  17.235  51.965
55387W        W47311   4.772  27.211  53.810
55388W        W47312  44.713   3.289  51.534
55389W        W47313  28.247  25.722  51.499
55390W        W47314   9.756  44.202  52.861
55391W        W47315  14.733  11.259  53.340
55392W        W47316  29.245   7.765  53.341
55393W        W47317   1.286  12.265  50.162
55394W        W47318  48.199  44.722  51.066
55395W        W47319  42.701  43.701  53.345
55396W        W47320  19.733   6.780  49.691
55397W        W47321  46.199  31.739  51.954
55398W        W47322  31.215  42.729  52.426
55399W        W47323  24.727   7.277  50.601
55400W        W47324  32.721  33.232  53.816
55401W        W47325  35.197  17.769  51.493
55402W        W47326  12.778   4.771  52.880
55403W        W47327  47.717   1.753  50.158
55404W        W47328  10.241  24.743  53.783
55405W        W47329   2.292  24.722  53.333
55406W        W47330   6.771  27.726  52.894
55407W        W47331  27.234  22.759  50.136
55408W        W47332  24.235  42.230  52.899
55409W        W47333  24.718  47.214  53.773
55410W        W47334   3.776  37.702  49.690
55411W        W47335  21.737   6.740  49.696
55412W        W47336  27.732  38.217  52.422
55413W        W47337  21.722  36.701  49.668
55414W        W47338   2.273  42.686  52.870
55415W        W47339  41.196   3.793  52.428
55416W        W47340  24.244  39.700  53.791
55417W        W47341  18.736  17.228  52.413
55418W        W47342  20.745   9.243  49.702
55419W        W47343  25.227  22.713  49.668
55420W        W47344  18.747  37.712  51.955
55421W        W47345  13.275   0.268  52.432
55422W        W47346  11.242  16.272  51.510
55423W        W47347  46.215  38.693  53.342
55424W        W47348  28.248  44.225  51.066
55425W        W47349  42.212   6.747  49.683
55426W        W47350  35.206  36.232  49.683
55427W        W47351  36.233  35.724  49.692
55428W        W47352  12.237  17.251  52.446
55429W        W47353   9.748  27.718  50.124
55430W        W47354  22.748  45.718  50.146
55431W        W47355  37.728  44.212  49.687
55432W        W47356  34.733  10.751  51.535
55433W        W47357   7.769   8.252  53.351
55434W        W47358  44.194  24.726  50.614
55435W        W47359  21.759  10.283  52.406
55436W        W47360  37.218   3.769  53.773
55437W        W47361  29.239  23.250  49.693
55438W        W47362  33.214  14.728  51.511
55439W        W47363   5.788  25.209  50.122
55440W        W47364  26.752   8.253  52.895
55441W        W47365  13.251  29.718  52.885
55442W        W47366  20.220  23.242  53.795
55443W        W47367  17.264  21.721  51.515
55444W        W47368   4.287  44.193  50.600
55445W        W47369   0.258  18.234  52.885
55446W        W47370  13.252  36.192  53.344
55447W        W47371   6.263   1.785  53.806
55448W        W47372  12.271   8.761  50.603
55449W        W47373   9.783  21.219  50.152
55450W        W47374  24.213  46.683  51.493
55451W        W47375  38.712  20.725  50.620
55452W        W47376   5.242  15.239  52.862
55453W        W47377  44.199  34.698  51.962
55454W        W47378  23.222  33.706  51.048
55455W        W47379  46.683  39.217  49.708
55456W        W47380  10.279  25.736  52.432
55457W        W47381  30.731  19.747  51.037
55458W        W47382  27.729  12.766  50.579
55459W        W47383  16.239   1.277  51.508
55460W        W47384  24.214   7.284  52.418
55461W        W47385  15.271  44.679  49.668
55462W        W47386  12.748  36.231  50.597
55463W        W47387  15.263  39.196  53.814
55464W        W47388  10.761  32.231  50.623
55465W        W47389  40.197   8.277  51.502
55466W        W47390  10.245  11.245  50.581
55467W        W47391   5.257  17.758  51.967
55468W        W47392  27.714  39.224  51.966
55469W        W47393  29.233  33.209  51.522
55470W        W47394  17.754  30.715  52.416
55471W        W47395   3.751   1.266  53.331
55472W        W47396   0.285  41.200  52.417
55473W        W47397  37.223  37.200  50.605
55474W        W47398  17.267   8.760  51.044
55475W        W47399  30.245  44.705  52.415
55476W        W47400  29.736  17.767  49.709
55477W        W47401  29.218   5.248  51.985
55478W        W47402  31.212   2.267  52.412
55479W        W47403  37.218  25.240  50.601
55480W        W47404  27.729  42.721  53.812
55481W        W47405   2.278  43.198  53.813
55482W        W47406  48.172  41.203  50.594
55483W        W47407   7.775   1.298  51.510
55484W        W47408  15.728  43.181  53.801
55485W        W47409  21.252   7.761  51.067
55486W        W47410  42.193  13.240  53.349
55487W        W47411   2.277   2.285  53.790
55488W        W47412  36.732  15.757  51.515
55489W        W47413  20.726   6.763  50.163
55490W        W47414  21.738  30.744  50.132
55491W        W47415  16.761  44.226  50.585
55492W        W47416  29.214  43.203  52.899
55493W        W47417  11.743  18.227  51.530
55494W        W47418  32.714  17.246  50.128
55495W        W47419  46.675  37.726  51.064
55496W        W47420  13.268   4.268  52.893
55497W        W47421  45.178  14.728  50.156
55498W        W47422  33.713  25.234  51.497
55499W        W47423  34.735  20.753  51.058
55500W        W47424  27.749  15.766  49.699
55501W        W47425  18.233   1.783  51.518
55502W        W47426   8.265   9.263  50.595
55503W        W47427  12.242  39.194  52.408
55504W        W47428  15.261  42.184  50.608
55505W        W47429  25.241  46.197  53.329
55506W        W47430  17.257  10.269  50.609
55507W        W47431  11.264  19.225  51.533
55508W        W47432  11.278  17.750  53.345
55509W        W47433  42.189   9.240  53.802
55510W        W47434  47.206  28.724  50.145
55511W        W47435  38.727  31.237  49.668
55512W        W47436  13.257  42.219  51.510
55513W        W47437  42.181  26.223  53.355
55514W        W47438  11.237  22.724  51.518
55515W        W47439  30.742  17.723  50.148
55516W        W47440  41.684   3.754  52.422
55517W        W47441  25.241   8.256  53.798
55518W        W47442  23.214   1.294  53.329
55519W        W47443  25.709  14.230  51.507
55520W        W47444   3.247   7.778  51.063
55521W        W47445  31.730   9.778  51.054
55522W        W47446  11.756   7.770  52.436
55523W        W47447  32.731  15.750  50.599
55524W        W47448  15.246   7.266  50.584
55525W        W47449  19.749  38.699  51.076
55526W        W47450  47.180  26.235  50.142
55527W        W47451   7.247  39.218  50.609
55528W        W47452  10.238  23.251  52.436
55529W        W47453  33.208  21.242  50.579
55530W        W47454  33.709  44.682  52.873
55531W        W47455  46.708  21.742  49.707
55532W        W47456  22.747  29.703  49.671
55533W        W47457  33.742  29.249  50.606
55534W        W47458  17.251  39.692  51.048
55535W        W47459   0.258  15.736  53.814
55536W        W47460  15.741  48.215  53.806
55537W        W47461   4.255  13.270  51.493
55538W        W47462  25.236  15.726  52.445
55539W        W47463  41.220  35.738  50.604
55540W        W47464  24.739  23.224  51.984
55541W        W47465  11.751  35.224  50.583
55542W        W47466  16.746  36.233  49.677
55543W        W47467  13.759  37.205  51.987
55544W        W47468  16.233  14.751  49.676
55545W        W47469  15.233  22.255  49.708
55546W        W47470  36.195   0.779  50.123
55547W        W47471  22.714  28.251  52.904
55548W        W47472  33.208  18.754  49.706
55549W        W47473   4.246  42.193  49.702
55550W        W47474  12.765  47.202  52.414
55551W        W47475  36.713   4.760  53.316
55552W        W47476  48.197  11.736  53.807
55553W        W47477   2.754   3.777  53.805
55554W        W47478  45.678   1.785  52.435
55555W        W47479  10.253  10.776  52.412
55556W        W47480  32.197  33.709  52.874
55557W        W47481  34.206  32.710  51.509
55558W        W47482  16.772  45.677  53.322
55559W        W47483   0.786  44.677  52.879
55560W        W47484  10.240  27.748  53.802
55561W        W47485   9.263  12.239  51.042
55562W        W47486  46.192  14.247  49.667
55563W        W47487  21.747  20.766  49.690
55564W        W47488  39.715  20.763  53.349
55565W        W47489  10.271   9.757  51.970
55566W        W47490   1.284   4.282  49.695
55567W        W47491  47.690   7.266  51.077
55568W        W47492  41.709  15.768  52.874
55569W        W47493  10.759  44.195  51.066
55570W        W47494  36.726  22.724  51.046
55571W        W47495  13.267  43.680  52.865
55572W        W47496  28.252  27.232  53.329
55573W        W47497   9.251   7.771  49.674
55574W        W47498  47.199   3.265  50.614
55575W        W47499  14.757  34.198  53.351
55576W        W47500  38.213  15.256  51.070
55577W        W47501  39.718  47.189  53.354
55578W        W47502  48.202  24.755  52.434
55579W        W47503  16.233   0.282  51.493
55580W        W47504  24.725  11.748  52.862
55581W        W47505  48.177   2.760  49.665
55582W        W47506  10.774  29.210  50.596
55583W        W47507  42.198   9.772  50.140
55584W        W47508  16.762  43.202  50.618
55585W        W47509  31.703  31.239  50.620
55586W        W47510  30.733   8.264  50.592
55587W        W47511  26.749  10.282  53.334
55588W        W47512  18.220  34.224  52.896
55589W        W47513  22.217  42.228  51.491
55590W        W47514  10.772  30.731  51.033
55591W        W47515  31.237  39.721  51.954
55592W        W47516  16.756  30.706  52.407
55593W        W47517   8.751  24.220  52.440
55594W        W47518  20.741  10.769  53.330
55595W        W47519  36.710  37.220  53.359
55596W        W47520  27.716   9.779  52.900
55597W        W47521  22.235  24.234  51.496
55598W        W47522  13.769  17.245  52.880
55599W        W47523   1.268   7.770  51.500
55600W        W47524  34.231  38.706  53.358
55601W        W47525  25.722  22.760  51.965
55602W        W47526  23.245  31.702  52.448
55603W        W47527  19.729  18.740  49.671
55604W        W47528  14.730  45.179  52.860
55605W        W47529  37.734  47.699  50.143
55606W        W47530  15.239   0.779  53.798
55607W        W47531  19.254  23.240  52.417
55608W        W47532   5.286   8.769  51.516
55609W        W47533   6.244  22.232  49.689
55610W        W47534  26.229  30.229  52.426
55611W        W47535  28.234   4.264  53.357
55612W        W47536  47.678  40.203  50.578
55613W        W47537   0.281  28.239  51.060
55614W        W47538  19.761  39.724  51.067
55615W        W47539  16.765  45.707  52.879
55616W        W47540   8.273  17.742  52.443
55617W        W47541  26.725   1.258  50.590
55618W        W47542  36.739  35.727  50.597
55619W        W47543   2.749  27.235  50.161
55620W        W47544  45.198  14.728  49.693
55621W        W47545   2.765  35.209  53.781
55622W        W47546   9.252  39.729  52.891
55623W        W47547   4.274  36.218  51.518
55624W        W47548   5.288  28.205  52.863
55625W        W47549  45.711  35.733  50.148
55626W        W47550  13.736  46.694  49.669
55627W        W47551  34.230  42.687  52.879
55628W        W47552  36.714  38.726  49.678
55629W        W47553  20.226  42.223  53.796
55630W        W47554  30.702  38.698  52.405
55631W        W47555   2.778  36.195  53.349
55632W        W47556  37.195  36.694  50.599
55633W        W47557  46.714  14.764  49.701
55634W        W47558  22.743  20.229  50.147
55635W        W47559  20.732   0.778  51.988
55636W        W47560  14.756  36.219  49.677
55637W        W47561  24.228  44.218  51.951
55638W        W47562  26.207  17.230  50.146
55639W        W47563   3.791   9.750  51.504
55640W        W47564  42.693  43.189  49.686
55641W        W47565  38.223  45.724  51.053
55642W        W47566  10.245  10.250  53.773
55643W        W47567  46.209   3.266  52.888
55644W        W47568  37.216   5.265  49.710
55645W        W47569   0.777  24.743  50.582
55646W        W47570  30.725  23.250  51.969
55647W        W47571   1.768   1.787  53.781
55648W        W47572  30.727   5.759  52.411
55649W        W47573   2.763  31.734  52.403
55650W        W47574  34.731  35.723  52.874
55651W        W47575  14.274  30.249  52.434
55652W        W47576  18.769  19.230  50.615
55653W        W47577   5.278   0.259  51.043
55654W        W47578  44.684   2.753  51.525
55655W        W47579  45.189   3.256  53.800
55656W        W47580   5.272  48.185  50.144
55657W        W47581  22.231  15.744  51.060
55658W        W47582  33.723  26.240  50.593
55659W        W47583  31.732  27.748  51.530
55660W        W47584  17.234  28.708  51.046
55661W        W47585   8.758  28.708  51.951
55662W        W47586   2.766   3.274  52.437
55663W        W47587  14.259   9.745  51.052
55664W        W47588   6.771  40.700  52.409
55665W        W47589  32.710   9.282  53.350
55666W        W47590  22.255  26.712  52.899
55667W        W47591  44.689  44.193  51.527
55668W        W47592   7.260  33.713  51.512
55669W        W47593  17.235  35.708  52.900
55670W        W47594   7.263   0.260  51.964
55671W        W47595  13.776  19.749  50.603
55672W        W47596  38.735  47.710  53.339
55673W        W47597  48.205  17.238  53.814
55674W        W47598  21.215  41.720  52.404
55675W        W47599  47.719  42.224  53.331
55676W        W47600  25.234  12.276  52.406
55677W        W47601   2.294   3.766  52.417
55678W        W47602  39.700  23.220  51.051
55679W        W47603  21.752  29.743  52.876
55680W        W47604   4.276  28.719  51.974
55681W        W47605  28.237  15.747  53.361
55682W        W47606  13.270  29.251  52.428
55683W        W47607   3.772  45.707  51.046
55684W        W47608  25.717  48.214  51.054
55685W        W47609   5.787  34.216  51.956
55686W        W47610  41.230  25.227  51.064
55687W        W47611   4.280  48.171  50.592
55688W        W47612  33.715  43.194  51.954
55689W        W47613  42.696  20.228  49.677
55690W        W47614   5.276   4.760  53.351
55691W        W47615  11.241  13.732  52.416
55692W        W47616   4.780  14.730  52.443
55693W        W47617  44.699  15.235  51.981
55694W        W47618  34.730  40.709  49.683
55695W        W47619  16.764  33.705  51.532
55696W        W47620   4.279  36.195  49.682
55697W        W47621   0.293  11.236  51.948
55698W        W47622  30.724  12.242  53.797
55699W        W47623  32.720  17.738  51.535
55700W        W47624  10.247  40.696  53.348
55701W        W47625  20.717  20.764  49.699
55702W        W47626  38.731   9.261  53.792
55703W        W47627   6.256   2.253  52.432
55704W        W47628  15.736  12.753  49.687
55705W        W47629  42.185  18.757  50.587
55706W        W47630  20.749  43.198  51.524
55707W        W47631   4.742  35.206  53.796
55708W        W47632  12.256  36.717  52.426
55709W        W47633   7.765   5.790  51.535
55710W        W47634  30.732  17.752  52.422
55711W        W47635  22.262  10.260  49.677
55712W        W47636  40.695  33.232  53.815
55713W        W47637   9.751  27.742  51.971
55714W        W47638  35.209  26.217  49.674
55715W        W47639  32.734  45.186  50.134
55716W        W47640  42.208  23.219  52.865
55717W        W47641  36.730  17.731  49.691
55718W        W47642  16.741  28.223  51.059
55719W        W47643   9.764   0.261  53.358
55720W        W47644   6.788  17.729  51.521
55721W        W47645  27.225  13.274  49.691
55722W        W47646  30.203  10.246  53.345
55723W        W47647  35.701  19.239  53.344
55724W        W47648  26.214  38.232  52.886
55725W        W47649  14.753  17.761  50.121
55726W        W47650  28.728   8.254  49.685
55727W        W47651  15.740  16.725  51.984
55728W        W47652  46.689   9.739  50.150
55729W        W47653   4.774  10.761  50.131
55730W        W47654  13.269  27.217  53.330
55731W        W47655  37.735   2.273  52.406
55732W        W47656  27.248  48.184  51.518
55733W        W47657  42.718  32.726  52.445
55734W        W47658  41.714  40.699  52.872
55735W        W47659  41.232   5.751  51.494
55736W        W47660  47.206   3.781  52.883
55737W        W47661  31.222  44.185  50.622
55738W        W47662   0.790  36.236  49.682
55739W        W47663  13.232  12.734  50.136
55740W        W47664  40.210  33.198  50.577
55741W        W47665  32.236  39.700  53.781
55742W        W47666  46.208  34.204  50.130
55743W        W47667  24.226  11.744  52.897
55744W        W47668  44.718  31.698  50.156
55745W        W47669  24.744  25.725  50.593
55746W        W47670  21.262  32.240  51.531
55747W        W47671  41.186  29.749  51.047
55748W        W47672  15.731   1.788  49.701
55749W        W47673   0.777   8.779  51.071
55750W        W47674  46.201   9.774  52.427
55751W        W47675  21.720  26.710  51.059
55752W        W47676   0.758  28.227  50.582
55753W        W47677   4.256   0.753  50.623
55754W        W47678  27.753  42.721  51.525
55755W        W47679  37.737  40.224  53.322
55756W        W47680  42.703  21.245  51.071
55757W        W47681  21.263  22.751  52.883
55758W        W47682  31.215  45.710  52.408
55759W        W47683  26.219  35.710  53.793
55760W        W47684  45.224   3.762  51.959
55761W        W47685   2.748  16.254  53.787
55762W        W47686   3.283  42.200  51.051
55763W        W47687  46.697   0.295  52.884
55764W        W47688  13.768   1.258  53.339
55765W        W47689   0.295  38.195  53.817
55766W        W47690  27.732  21.228  53.325
55767W        W47691  46.220  40.704  50.602
55768W        W47692  40.222  25.232  51.978
55769W        W47693  23.712  14.769  52.881
55770W        W47694  12.761  12.736  49.678
55771W        W47695  13.241   4.765  51.071
55772W        W47696  48.190  33.729  51.040
55773W        W47697  46.197   6.770  51.974
55774W        W47698  29.234   7.273  49.697
55775W        W47699  27.745  45.212  53.781
55776W        W47700  13.247   2.786  49.676
55777W        W47701   1.756  33.739  53.803
55778W        W47702  47.209  18.256  52.872
55779W        W47703  47.173  24.717  49.702
55780W        W47704   1.266  39.727  49.702
55781W        W47705   8.782  47.680  50.145
55782W        W47706  24.216   5.278  50.615
55783W        W47707  10.260   0.261  49.690
55784W        W47708  33.718   1.772  52.896
55785W        W47709  23.756  23.216  51.047
55786W        W47710   9.250  11.766  53.346
55787W        W47711  22.242   8.765  51.061
55788W        W47712  19.224  48.171  53.326
55789W        W47713   9.266   7.748  50.598
55790W        W47714  21.739  17.725  49.668
55791W        W47715  15.249  14.248  51.967
55792W        W47716  43.201  41.718  52.897
55793W        W47717  45.709  40.226  51.524
55794W        W47718  11.742  30.217  53.334
55795W        W47719  30.737   7.285  53.344
55796W        W47720  44.189   7.745  51.496
55797W        W47721  34.700  34.213  51.050
55798W        W47722  36.236  21.755  50.609
55799W        W47723  43.683   5.768  51.057
55800W        W47724  32.727  44.186  53.354
55801W        W47725   2.251  16.746  49.685
55802W        W47726   2.758  41.699  53.324
55803W        W47727  10.236  31.204  52.426
55804W        W47728  40.190  34.223  52.897
55805W        W47729  39.693  21.227  53.807
55806W        W47730  34.217  24.736  50.623
55807W        W47731   0.290  20.749  53.329
55808W        W47732   4.767  19.245  51.960
55809W        W47733  17.757  35.733  51.960
55810W        W47734  23.749  20.762  52.422
55811W        W47735  11.268  29.241  53.324
55812W        W47736  11.746  11.265  53.317
55813W        W47737   8.257   2.766  50.147
55814W        W47738   0.755   3.785  52.865
55815W        W47739   8.267   2.294  53.359
55816W        W47740  35.707  39.725  51.974
55817W        W47741  33.696  45.201  50.147
55818W        W47742  31.745  35.216  52.871
55819W        W47743   8.261  38.719  50.579
55820W        W47744  39.229  10.265  51.965
55821W        W47745  28.218  24.239  53.326
55822W        W47746   7.783  13.272  49.682
55823W        W47747  26.743  12.278  53.797
55824W        W47748   2.780  29.729  53.319
55825W        W47749  13.752  41.712  52.893
55826W        W47750  38.189  46.695  51.067
55827W        W47751   1.778   0.758  53.802
55828W        W47752  33.241  11.733  50.153
55829W        W47753  21.225  20.246  52.429
55830W        W47754  29.230  18.247  51.958
55831W        W47755  41.693  25.251  51.502
55832W        W47756   2.788  37.708  50.588
55833W        W47757  26.225  26.232  50.157
55834W        W47758  22.716  13.261  53.360
55835W        W47759   9.258  40.705  53.330
55836W        W47760  43.186  34.227  50.131
55837W        W47761  28.717  20.756  51.531
55838W        W47762  37.691  31.227  50.621
55839W        W47763  32.720   6.264  51.524
55840W        W47764  32.705  19.235  52.431
55841W        W47765   6.288  23.253  50.126
55842W        W47766   5.770  20.722  50.166
55843W        W47767  28.717  43.693  50.606
55844W        W47768  31.221  10.274  50.123
55845W        W47769  14.744  15.739  53.801
55846W        W47770  32.725  21.762  53.327
55847W        W47771  18.221  14.250  51.535
55848W        W47772   2.290  45.219  50.146
55849W        W47773  25.250  20.251  53.781
55850W        W47774  18.229  27.214  49.680
55851W        W47775   9.240   1.263  51.516
55852W        W47776  12.268  31.243  50.137
55853W        W47777   1.750  48.205  51.060
55854W        W47778   8.780  21.716  51.526
55855W        W47779  12.240   6.270  49.686
55856W        W47780   8.780  44.702  52.868
55857W        W47781  32.203  24.218  49.696
55858W        W47782   0.299  38.206  49.675
55859W        W47783  40.693  29.245  51.073
55860W        W47784  25.718  44.683  53.783
55861W        W47785  15.261  34.724  51.496
55862W        W47786   1.771  47.693  52.868
55863W        W47787   5.778  42.181  53.787
55864W        W47788  39.687  17.743  53.773
55865W        W47789  35.208  10.282  49.685
55866W        W47790  37.737  20.258  51.502
55867W        W47791   5.243   9.738  50.620
55868W        W47792  20.250   0.753  50.151
55869W        W47793  43.683  25.251  52.410
55870W        W47794  22.253  21.246  52.864
55871W        W47795  30.745  41.196  53.337
55872W        W47796   9.275  25.742  50.139
55873W        W47797   2.262  47.205  49.707
55874W        W47798  11.250  23.241  50.590
55875W        W47799  29.747  39.718  50.136
55876W        W47800  16.262  24.719  51.525
55877W        W47801  32.210   2.774  49.702
55878W        W47802  38.220  39.723  51.500
55879W        W47803   8.265  38.691  49.685
55880W        W47804  27.717  39.722  51.504
55881W        W47805  43.224  24.233  50.587
55882W        W47806  48.182  34.719  50.126
55883W        W47807  46.222  45.724  52.877
55884W        W47808  41.193  15.226  52.866
55885W        W47809  15.752  21.256  51.493
55886W        W47810   8.741  23.243  53.779
55887W        W47811  34.711  46.185  51.522
55888W        W47812  12.231  22.717  52.863
55889W        W47813  23.225   4.762  51.967
55890W        W47814  33.744  26.733  52.422
55891W        W47815  21.222   9.258  51.040
55892W        W47816  43.179  41.216  52.860
55893W        W47817  33.234  35.212  51.975
55894W        W47818  26.743  15.732  49.693
55895W        W47819   9.762  12.248  51.532
55896W        W47820   7.769  35.718  50.160
55897W        W47821  46.688  30.735  50.164
55898W        W47822  42.223  40.724  50.582
55899W        W47823  38.702  22.231  52.446
55900W        W47824  23.713  42.225  51.065
55901W        W47825  19.254  36.216  53.360
55902W        W47826   2.275  18.239  53.805
55903W        W47827  16.768  24.744  51.514
55904W        W47828   6.752   2.766  51.074
55905W        W47829  17.728  25.221  50.609
55906W        W47830   3.754  27.237  53.327
55907W        W47831  28.245  23.749  49.666
55908W        W47832  32.702  28.746  53.341
55909W        W47833  22.256  40.728  52.893
55910W        W47834  16.750  40.214  51.510
55911W        W47835  47.183  45.175  53.790
55912W        W47836  35.711  46.722  51.049
55913W        W47837  14.271  43.181  51.964
55914W        W47838   7.775   4.781  50.597
55915W        W47839  44.704   2.751  49.707
55916W        W47840   3.783  42.704  51.060
55917W        W47841  23.711  11.761  51.533
55918W        W47842  45.178  12.760  50.588
55919W        W47843   5.764  43.692  49.673
55920W        W47844  25.757   5.257  52.442
55921W        W47845  15.257  20.723  53.790
55922W        W47846  28.725  23.749  52.406
55923W        W47847   1.264  40.711  52.882
55924W        W47848  41.717  19.743  51.533
55925W        W47849  43.187   3.259  51.492
55926W        W47850  16.244  23.725  51.983
55927W        W47851  41.723  31.702  49.704
55928W        W47852  34.211   4.288  52.873
55929W        W47853   5.271  11.274  53.361
55930W        W47854  14.758   1.771  51.516
55931W        W47855  13.239  25.231  49.688
55932W        W47856   0.288  38.686  51.079
55933W        W47857  24.729   8.761  51.076
55934W        W47858   3.246  29.734  51.518
55935W        W47859  26.252  24.747  50.615
55936W        W47860  26.735  29.215  50.129
55937W        W47861  28.729   4.275  53.361
55938W        W47862  46.680  17.747  52.416
55939W        W47863  11.735  45.215  50.159
55940W        W47864  40.702  42.186  50.587
55941W        W47865   3.253   8.262  51.525
55942W        W47866   8.744  14.754  51.984
55943W        W47867  44.217  15.262  53.786
55944W        W47868  39.224  11.233  51.074
55945W        W47869  40.217  47.693  52.440
55946W        W47870   9.740   4.282  51.054
55947W        W47871   1.777  22.215  50.163
55948W        W47872  45.678  23.240  51.066
55949W        W47873  47.674  22.253  53.785
55950W        W47874   1.261  24.750  52.419
55951W        W47875  30.719  28.228  51.516
55952W        W47876  20.758   1.760  49.696
55953W        W47877   7.753  14.761  53.795
55954W        W47878   3.793  12.263  51.949
55955W        W47879  18.759  20.265  51.987
55956W        W47880  31.203  22.246  51.975
55957W        W47881  27.729  38.712  51.991
55958W        W47882  41.726  29.730  53.360
55959W        W47883  14.256  25.712  52.436
55960W        W47884   7.779   7.278  49.699
55961W        W47885  25.709  13.236  52.904
55962W        W47886  48.194  30.246  53.347
55963W        W47887  18.751  30.714  51.523
55964W        W47888  48.175   2.264  53.787
55965W        W47889  10.269  48.219  52.435
55966W        W47890   2.793  17.734  50.156
55967W        W47891  37.737  39.732  49.669
55968W        W47892   1.795  25.234  51.518
55969W        W47893  17.261   7.777  53.795
55970W        W47894  38.195  38.237  53.360
55971W        W47895  25.722   4.276  50.612
55972W        W47896  40.691   6.286  53.360
55973W        W47897  13.759  21.738  52.406
55974W        W47898   4.757  20.742  49.677
55975W        W47899  29.225  39.189  53.806
55976W        W47900  10.240  16.759  50.617
55977W        W47901  46.694  26.716  50.609
55978W        W47902  26.729  42.711  51.529
55979W        W47903  12.755  18.256  51.491
55980W        W47904  24.259  36.698  52.900
55981W        W47905  43.205   4.278  51.521
55982W        W47906   7.785  15.232  51.992
55983W        W47907   4.278  24.260  52.864
55984W        W47908   4.745  40.719  51.053
55985W        W47909  38.235  37.203  51.991
55986W        W47910  21.244  32.736  52.419
55987W        W47911  20.238  48.210  50.581
55988W        W47912  23.222  35.697  49.701
55989W        W47913   5.746  10.267  51.959
55990W        W47914  15.256  36.239  52.869
55991W        W47915   8.762  33.738  51.516
55992W        W47916  44.219  23.713  53.340
55993W        W47917   9.245  30.737  49.694
55994W        W47918  40.197  32.212  49.679
55995W        W47919  29.222  40.205  51.501
55996W        W47920  36.698  30.717  51.498
55997W        W47921  23.738  39.214  50.133
55998W        W47922  45.215  19.230  52.407
55999W        W47923  17.247   7.741  51.071
56000W        W47924  30.217  15.260  50.584
56001W        W47925  15.225  33.223  53.341
56002W        W47926  15.265  31.732  52.902
56003W        W47927  41.212   2.277  53.774
56004W        W47928  13.248  28.212  51.051
56005W        W47929   0.794  41.708  53.815
56006W        W47930  21.223  12.251  49.698
56007W        W47931  14.746  29.235  49.681
56008W        W47932   0.296  34.702  51.952
56009W        W47933  17.261  34.195  53.337
56010W        W47934   4.762  16.755  51.065
56011W        W47935  30.703   6.262  51.049
56012W        W47936  23.228  42.193  51.065
56013W        W47937  42.694   0.769  51.510
56014W        W47938  37.699  11.736  52.885
56015W        W47939  40.195   1.270  53.330
56016W        W47940  28.738   3.284  53.331
56017W        W47941  12.763  44.200  51.065
56018W        W47942  16.224  41.184  51.528
56019W        W47943   2.264   6.264  52.423
56020W        W47944  42.692  32.717  53.817
56021W        W47945  26.740  29.718  51.951
56022W        W47946   1.251  47.712  49.701
56023W        W47947  40.191  38.229  51.056
56024W        W47948  20.257  31.208  52.405
56025W        W47949  27.236  31.742  51.065
56026W        W47950  37.232  12.750  51.055
56027W        W47951   5.254   4.283  52.411
56028W        W47952  30.245   4.249  52.880
56029W        W47953  39.704  44.193  50.608
56030W        W47954  32.709   6.270  51.060
56031W        W47955  14.233  11.262  49.706
56032W        W47956  11.766  23.714  51.059
56033W        W47957  14.270  22.218  49.684
56034W        W47958  35.203  27.208  53.360
56035W        W47959  22.220  42.206  53.778
56036W        W47960  34.714  18.768  51.042
56037W        W47961  45.688  21.732  51.986
56038W        W47962  18.249  31.713  51.502
56039W        W47963   8.269  28.729  51.076
56040W        W47964  41.691  45.194  50.587
56041W        W47965  30.207  44.225  52.893
56042W        W47966  48.191  17.269  51.511
56043W        W47967  10.280  35.213  53.812
56044W        W47968  27.208  47.214  49.702
56045W        W47969  27.740  33.199  53.808
56046W        W47970   3.762  18.760  53.805
56047W        W47971  45.190  29.215  53.357
56048W        W47972   0.262  32.719  51.035
56049W        W47973   4.272   9.754  51.048
56050W        W47974  44.703  33.730  51.063
56051W        W47975  44.686  12.744  51.075
56052W        W47976  18.762  21.728  51.980
56053W        W47977  20.248  10.764  52.902
56054W        W47978  12.241  18.724  51.979
56055W        W47979  29.723  39.711  49.695
56056W        W47980  39.688  18.745  52.871
56057W        W47981   2.746  35.227  52.406
56058W        W47982   9.769  25.253  52.432
56059W        W47983   7.776  29.746  51.059
56060W        W47984  17.761  35.224  51.977
56061W        W47985  16.243  20.763  50.166
56062W        W47986   5.253   4.246  50.611
56063W        W47987   1.251  21.232  49.683
56064W        W47988  23.723  12.749  51.503
56065W        W47989  46.680  41.214  50.158
56066W        W47990  34.214  41.209  50.583
56067W        W47991  25.223  30.214  52.447
56068W        W47992  44.221  28.228  52.407
56069W        W47993  22.743   2.761  50.150
56070W        W47994  45.219   5.253  50.155
56071W        W47995  17.762   8.244  52.420
56072W        W47996  46.199  24.728  52.418
56073W        W47997   7.268  41.707  51.968
56074W        W47998  47.682  39.726  49.694
56075W        W47999  30.699  45.715  53.340
56076W        W48000  31.712  27.235  53.815
56077W        W48001  22.727  46.218  53.780
56078W        W48002   1.298   0.278  53.803
56079W        W48003  22.258  24.755  52.885
56080W        W48004   4.791  17.735  52.405
56081W        W48005  39.712  24.231  52.874
56082W        W48006  22.241  15.752  50.153
56083W        W48007   8.252  44.182  53.794
56084W        W48008   6.746   0.282  53.349
56085W        W48009  25.736  33.717  53.791
56086W        W48010  28.728  35.704  53.327
56087W        W48011  18.220  30.234  51.970
56088W        W48012  46.214  28.720  52.877
56089W        W48013  19.722   9.749  50.579
56090W        W48014  16.233  25.247  52.425
56091W        W48015  13.728  18.264  52.442
56092W        W48016  28.214  29.224  53.813
56093W        W48017  29.722  11.734  53.777
56094W        W48018  34.710  12.266  53.348
56095W        W48019  15.231  15.238  53.334
56096W        W48020  37.726   4.285  50.609
56097W        W48021  43.718  16.751  50.130
56098W        W48022  26.714   0.753  51.077
56099W        W48023  20.258  32.214  51.974
56100W        W48024  33.739  14.275  51.982
56101W        W48025   3.761  46.202  50.597
56102W        W48026  37.193  10.744  51.503
56103W        W48027  32.742  34.195  52.423
56104W        W48028  19.257  15.225  51.982
56105W        W48029  19.731  36.224  53.332
56106W        W48030  24.728  21.261  52.412
56107W        W48031  42.195  34.742  51.058
56108W        W48032  21.259  16.260  51.058
56109W        W48033  42.182   2.275  51.973
56110W        W48034  38.732  15.736  52.899
56111W        W48035  44.701  39.697  50.152
56112W        W48036  18.720   4.784  50.157
56113W        W48037  11.267  32.699  53.329
56114W        W48038  42.182  18.734  49.689
56115W        W48039  36.690  13.739  51.967
56116W        W48040   4.765   9.742  49.674
56117W        W48041   2.778  15.272  52.404
56118W        W48042   7.243  41.701  53.781
56119W        W48043   1.783   9.742  52.879
56120W        W48044  33.721   4.756  53.806
56121W        W48045  18.727  48.173  53.799
56122W        W48046  45.714  28.231  51.986
56123W        W48047  41.229  17.750  53.805
56124W        W48048  10.768  31.713  50.144
56125W        W48049  19.743  45.207  50.602
56126W        W48050  36.698  14.238  52.873
56127W        W48051  27.230  41.211  50.614
56128W        W48052  28.730  46.717  53.361
56129W        W48053  24.721   1.793  51.959
56130W        W48054  30.704  38.212  52.865
56131W        W48055  39.191   6.757  52.430
56132W        W48056   0.768   2.280  51.529
56133W        W48057   0.288  10.774  52.867
56134W        W48058  28.738  20.263  52.886
56135W        W48059  40.714  19.741  53.342
56136W        W48060  24.721  10.251  51.050
56137W        W48061  11.279  27.214  53.790
56138W        W48062   5.275  37.227  52.441
56139W        W48063   9.280  17.265  51.986
56140W        W48064  10.273   0.291  51.070
56141W        W48065  24.227  42.225  50.148
56142W        W48066  46.204  39.686  52.872
56143W        W48067  45.221  24.738  51.953
56144W        W48068  46.217  46.685  51.968
56145W        W48069  16.754  22.713  53.812
56146W        W48070   8.766  12.774  50.586
56147W        W48071  13.764  32.237  49.708
56148W        W48072   6.265  24.216  53.778
56149W        W48073   3.777  33.711  50.584
56150W        W48074   6.258  36.691  53.328
56151W        W48075  43.198   6.756  50.588
56152W        W48076  22.232  36.224  51.520
56153W        W48077  33.208  48.210  52.874
56154W        W48078  43.678  36.219  51.985
56155W        W48079  26.215  11.280  49.683
56156W        W48080  16.267  35.703  53.346
56157W        W48081  15.731   2.290  53.788
56158W        W48082  13.746  34.716  50.163
56159W        W48083  26.743  30.719  50.615
56160W        W48084  43.195   5.259  53.336
56161W        W48085  13.239  11.739  51.953
56162W        W48086  10.772  11.756  49.695
56163W        W48087  37.719  40.706  51.075
56164W        W48088  13.738  11.255  53.785
56165W        W48089   2.775  47.201  51.530
56166W        W48090  23.734  47.193  51.508
56167W        W48091  24.716  47.721  50.618
56168W        W48092  44.194  15.759  51.063
56169W        W48093  31.235  31.714  51.508
56170W        W48094  25.714  17.768  52.878
56171W        W48095   2.248  23.241  51.972
56172W        W48096  37.707  13.774  51.957
56173W        W48097   0.280  14.259  50.608
56174W        W48098  14.772   2.268  51.510
56175W        W48099   9.753  43.182  53.361
56176W        W48100  14.235  30.223  50.133
56177W        W48101   6.752   2.276  50.143
56178W        W48102  28.752  30.210  51.518
56179W        W48103   5.270  41.193  50.127
56180W        W48104  12.733   7.781  52.447
56181W        W48105  41.728  11.232  51.972
56182W        W48106   7.243  26.725  51.965
56183W        W48107  36.716  17.228  51.513
56184W        W48108  41.225  31.211  51.535
56185W        W48109  43.717  18.767  53.798
56186W        W48110  35.217  17.768  51.079
56187W        W48111  46.185  30.706  51.523
56188W        W48112  13.756  16.263  50.165
56189W        W48113  12.758  22.721  52.860
56190W        W48114  27.710   0.794  51.966
56191W        W48115  46.192  46.213  53.329
56192W        W48116  30.240  38.721  50.137
56193W        W48117  38.231  43.692  50.591
56194W        W48118  47.718   7.763  50.121
56195W        W48119  44.192  47.677  52.884
56196W        W48120  37.735  19.230  50.145
56197W        W48121   1.296  12.730  49.696
56198W        W48122  24.217  41.194  51.496
56199W        W48123  41.231  40.194  53.326
56200W        W48124  45.195  14.762  52.867
56201W        W48125   7.776   9.253  50.612
56202W        W48126   8.275  38.687  52.436
56203W        W48127  23.729  15.738  49.679
56204W        W48128  47.686  21.233  50.161
56205W        W48129  31.708  41.730  51.059
56206W        W48130  46.220  17.724  53.356
56207W        W48131  27.232  44.194  50.622
56208W        W48132  32.223  12.758  50.622
56209W        W48133  37.696  28.724  50.154
56210W        W48134   0.791   4.250  53.802
56211W        W48135   7.255   9.745  53.777
56212W        W48136   5.780  11.772  52.447
56213W        W48137  26.243  15.266  50.152
56214W        W48138  36.231  27.727  51.535
56215W        W48139  14.755   9.739  53.331
56216W        W48140  37.220  13.243  51.064
56217W        W48141  37.709  19.228  53.794
56218W        W48142  34.705  34.723  49.688
56219W        W48143  31.229  46.690  50.603
56220W        W48144  20.721   5.754  52.876
56221W        W48145  17.754  29.210  49.710
56222W        W48146   2.250  46.712  53.330
56223W        W48147  23.221  44.209  50.592
56224W        W48148   6.774  35.708  52.890
56225W        W48149  36.215  29.736  50.615
56226W        W48150  22.260  48.174  51.520
56227W        W48151  44.708  46.693  53.816
56228W        W48152  23.238   1.257  51.046
56229W        W48153  21.249   7.763  49.696
56230W        W48154   1.262  42.229  50.607
56231W        W48155   0.758   5.269  50.596
56232W        W48156  13.729  11.257  52.897
56233W        W48157  33.706  26.715  53.802
56234W        W48158  26.237  24.213  51.502
56235W        W48159  36.229   5.271  51.040
56236W        W48160   6.778  19.746  51.054
56237W        W48161  39.729  46.211  50.593
56238W        W48162  10.271  20.265  51.969
56239W        W48163   3.291  14.246  53.779
56240W        W48164  30.217  38.705  53.347
56241W        W48165  19.764  19.235  49.673
56242W        W48166  41.210   1.753  52.889
56243W        W48167   3.745  47.213  51.979
56244W        W48168  42.217  37.710  50.163
56245W        W48169  45.181  16.743  51.512
56246W        W48170  36.235  41.215  51.949
56247W        W48171  31.215  48.211  51.518
56248W        W48172  37.711   5.768  52.404
56249W        W48173  33.230  26.234  50.591
56250W        W48174  44.208  35.241  52.877
56251W        W48175   5.750  32.226  52.864
56252W        W48176   7.783  18.733  51.056
56253W        W48177   2.793  23.213  53.316
56254W        W48178   5.267  29.726  49.665
56255W        W48179  34.209  15.233  52.888
56256W        W48180  10.242  45.680  53.358
56257W        W48181  47.682  30.220  53.778
56258W        W48182  21.262  27.218  49.677
56259W        W48183  13.776   4.745  50.151
56260W        W48184   4.772  42.690  51.079
56261W        W48185   3.260  44.682  53.790
56262W        W48186  21.736  15.732  49.693
56263W        W48187   3.276   3.782  53.772
56264W        W48188  29.237  33.743  51.526
56265W        W48189  43.706   5.772  51.525
56266W        W48190  12.246   5.269  52.433
56267W        W48191   6.772   7.276  50.130
56268W        W48192  29.225  37.690  53.810
56269W        W48193  27.742   5.772  52.416
56270W        W48194  33.222  22.220  50.144
56271W        W48195  34.710  38.713  51.532
56272W        W48196  19.726  21.724  50.131
56273W        W48197  30.210  12.750  52.419
56274W        W48198  12.761  29.210  51.518
56275W        W48199  43.218   8.238  52.860
56276W        W48200  44.211   3.261  50.599
56277W        W48201   0.268  42.198  53.813
56278W        W48202  10.238  13.731  53.789
56279W        W48203  26.216  20.229  50.127
56280W        W48204  32.235   4.777  52.865
56281W        W48205  18.746  19.750  51.071
56282W        W48206  37.716   6.750  50.159
56283W        W48207  18.768  44.187  53.807
56284W        W48208  29.205  12.262  51.073
56285W        W48209   2.795  18.261  53.790
56286W        W48210  43.216  35.723  53.332
56287W        W48211  46.701  29.719  52.862
56288W        W48212  22.735  40.191  49.669
56289W        W48213  44.700   6.286  50.617
56290W        W48214  17.755   2.288  53.333
56291W        W48215  22.235  23.235  50.133
56292W        W48216   8.745  30.248  52.415
56293W        W48217  36.196  43.217  53.330
56294W        W48218  36.240   3.757  49.668
56295W        W48219  45.688  17.733  51.971
56296W        W48220  34.205  23.745  49.681
56297W        W48221  41.213  42.682  51.518
56298W        W48222  15.264  37.203  52.874
56299W        W48223  13.256  17.728  51.052
56300W        W48224  36.711  19.242  52.446
56301W        W48225  47.175   2.794  52.403
56302W        W48226   5.257   3.770  50.593
56303W        W48227  28.707  28.728  49.707
56304W        W48228  35.239   7.255  50.158
56305W        W48229   6.776  25.716  51.491
56306W        W48230  37.713  11.770  53.327
56307W        W48231  26.733  39.696  51.534
56308W        W48232   3.769  23.239  50.143
56309W        W48233  37.238  10.733  50.614
56310W        W48234   1.289   0.759  53.792
56311W        W48235  19.254   9.768  51.496
56312W        W48236  36.736  15.748  53.321
56313W        W48237  24.232   7.747  51.057
56314W        W48238  30.244  11.268  52.411
56315W        W48239  36.191  45.705  51.979
56316W        W48240  10.747  33.714  52.868
56317W        W48241  47.202   6.781  53.355
56318W        W48242  32.713  25.723  49.671
56319W        W48243   4.273  19.221  52.448
56320W        W48244  39.188  37.221  52.421
56321W        W48245  15.254  40.710  53.780
56322W        W48246  24.754  25.230  50.617
56323W        W48247  17.744  33.700  51.984
56324W        W48248  14.748  33.736  51.498
56325W        W48249  45.222  37.221  51.968
56326W        W48250  42.686  15.741  52.442
56327W        W48251  33.208  20.223  53.317
56328W        W48252  19.739  34.711  51.969
56329W        W48253  24.221  42.213  51.064
56330W        W48254  31.716  22.229  50.582
56331W        W48255  29.228  40.707  51.958
56332W        W48256  18.746  11.750  50.606
56333W        W48257  46.714   1.282  50.595
56334W        W48258   2.753  15.759  49.702
56335W        W48259  18.228  15.270  49.694
56336W        W48260  19.242  35.715  50.591
56337W        W48261   8.283   1.770  51.494
56338W        W48262  43.721  21.251  53.336
56339W        W48263  27.733   4.749  49.685
56340W        W48264  21.229   4.746  51.963
56341W        W48265   1.284  45.178  51.992
56342W        W48266  35.233  24.225  52.871
56343W        W48267  43.224  12.239  53.809
56344W        W48268  42.223  24.724  51.949
56345W        W48269  17.760  11.261  50.589
56346W        W48270  42.711  20.236  53.776
56347W        W48271  30.215   3.755  51.046
56348W        W48272  35.213   2.273  51.036
56349W        W48273  45.178  33.701  49.686
56350W        W48274  44.689  33.739  51.949
56351W        W48275   9.751  27.733  50.610
56352W        W48276  23.734   8.237  51.508
56353W        W48277  18.734  25.227  50.611
56354W        W48278   9.755  35.694  51.949
56355W        W48279  41.686   5.778  51.034
56356W        W48280  42.193  25.737  51.050
56357W        W48281  45.215  23.726  50.585
56358W        W48282  43.720  16.246  50.610
56359W        W48283  36.712  47.200  53.812
56360W        W48284  10.272  13.759  50.132
56361W        W48285  33.722  34.717  50.599
56362W        W48286   0.774  31.239  49.680
56363W        W48287  41.686  13.747  49.687
56364W        W48288   9.238  41.183  52.410
56365W        W48289  13.776  42.701  52.887
56366W        W48290  41.687  45.210  51.054
56367W        W48291  46.694  31.219  52.901
56368W        W48292   4.248  38.194  49.691
56369W        W48293  31.230   0.794  53.353
56370W        W48294  26.211   1.797  49.685
56371W        W48295   0.796   8.740  51.531
56372W        W48296  46.220  14.275  50.614
56373W        W48297  25.723  30.716  51.494
56374W        W48298  44.700  12.254  50.615
56375W        W48299   9.250  46.688  51.499
56376W        W48300  42.687  40.700  49.700
56377W        W48301  26.254   5.268  51.969
56378W        W48302  11.268  37.724  51.974
56379W        W48303  47.193   8.748  51.499
56380W        W48304  30.232  14.272  51.527
56381W        W48305  44.217  38.198  50.165
56382W        W48306  12.258   0.297  53.343
56383W        W48307   9.743  39.187  49.668
56384W        W48308  14.747  41.714  50.161
56385W        W48309   3.286  27.237  52.433
56386W        W48310   2.249  16.264  50.163
56387W        W48311  48.171  45.222  52.420
56388W        W48312  47.220  17.246  53.332
56389W        W48313  42.702  39.687  50.165
56390W        W48314  40.731  28.747  51.956
56391W        W48315  43.688   7.284  53.320
56392W        W48316  22.720  22.727  52.444
56393W        W48317  45.222  18.267  49.675
56394W        W48318  41.701   9.757  51.051
56395W        W48319  16.745   8.282  52.863
56396W        W48320  42.727  46.687  50.602
56397W        W48321  17.225  34.230  50.148
56398W        W48322  46.209   4.789  51.499
56399W        W48323  10.765  27.242  51.507
56400W        W48324  16.767  10.239  49.683
56401W        W48325  20.246  16.737  52.891
56402W        W48326   7.265  17.754  51.053
56403W        W48327  16.253  46.722  53.783
56404W        W48328  38.215  24.724  51.955
56405W        W48329  11.240   7.763  51.063
56406W        W48330  27.212  32.719  49.698
56407W        W48331  27.729   0.272  51.983
56408W        W48332  23.257   2.794  53.815
56409W        W48333  24.733   3.765  52.433
56410W        W48334  40.191   7.273  51.964
56411W        W48335   7.286  32.210  52.894
56412W        W48336  29.725   2.793  50.123
56413W        W48337   0.768  30.746  53.802
56414W        W48338  41.700  22.233  53.807
56415W        W48339  24.228  43.203  49.669
56416W        W48340  42.682   4.747  52.408
56417W        W48341  43.200  37.720  51.533
56418W        W48342  12.277   3.765  49.666
56419W        W48343  18.252   6.289  51.535
56420W        W48344  45.184  37.196  51.055
56421W        W48345   9.739  21.733  50.158
56422W        W48346  33.716  44.204  52.441
56423W        W48347  44.719   2.286  51.533
56424W        W48348  39.217  22.255  50.609
56425W        W48349  10.273  13.265  50.163
56426W        W48350  18.734  30.228  50.619
56427W        W48351  42.226  19.765  49.693
56428W        W48352  11.264  45.194  53.355
56429W        W48353  30.238  13.278  49.708
56430W        W48354  23.247  30.733  52.447
56431W        W48355  39.693   4.266  52.896
56432W        W48356  37.232  45.683  51.990
56433W        W48357  32.218   2.752  50.122
56434W        W48358  19.751   4.279  52.431
56435W        W48359  23.756  21.249  53.350
56436W        W48360  39.731  19.258  50.599
56437W        W48361  26.725  43.691  52.884
56438W        W48362  19.718  14.763  53.814
56439W        W48363  42.681  29.749  53.330
56440W        W48364  45.198  20.734  53.796
56441W        W48365  46.701  15.726  51.967
56442W        W48366  36.201   1.277  51.045
56443W        W48367  34.220   3.271  51.072
56444W        W48368  20.757  20.751  50.125
56445W        W48369  21.753   4.756  52.876
56446W        W48370  20.759   2.266  49.681
56447W        W48371   5.759  28.724  52.900
56448W        W48372  21.740  20.231  50.132
56449W        W48373  21.746  10.236  53.797
56450W        W48374  43.193  14.266  50.602
56451W        W48375  17.233  14.741  51.040
56452W        W48376  14.245   3.266  52.438
56453W        W48377  10.240  22.750  50.159
56454W        W48378  43.706   7.254  51.969
56455W        W48379  29.233  43.187  53.787
56456W        W48380  43.182  33.232  51.984
56457W        W48381   5.765  25.723  50.150
56458W        W48382  21.737  15.250  51.077
56459W        W48383  21.763   3.763  52.894
56460W        W48384  46.176  28.704  51.533
56461W        W48385  22.728  28.232  51.070
56462W        W48386  13.745  42.222  53.342
56463W        W48387   9.759   2.282  51.980
56464W        W48388  18.752  23.742  51.980
56465W        W48389  38.192  44.691  50.603
56466W        W48390  46.687  15.253  51.053
56467W        W48391  42.202  47.211  53.355
56468W        W48392  23.215  31.737  53.340
56469W        W48393  44.695  47.677  53.351
56470W        W48394  20.764  23.258  52.410
56471W        W48395  44.686  17.252  53.330
56472W        W48396  14.757  27.226  52.441
56473W        W48397   7.277  12.263  52.872
56474W        W48398  41.693   9.273  53.788
56475W        W48399  11.257  30.221  53.813
56476W        W48400  33.239  37.707  51.060
56477W        W48401  34.694  27.754  51.990
56478W        W48402  23.219  22.236  49.706
56479W        W48403  30.221   6.743  51.969
56480W        W48404  18.742  38.190  53.338
56481W        W48405  30.227  36.704  51.959
56482W        W48406  39.695  37.732  52.894
56483W        W48407   7.251  22.234  49.692
56484W        W48408   8.270   7.266  52.434
56485W        W48409  20.225  38.234  51.986
56486W        W48410  19.252  29.221  51.070
56487W        W48411   0.295   3.757  52.412
56488W        W48412  48.177  24.237  51.496
56489W        W48413   9.780   8.271  52.896
56490W        W48414  35.212   8.765  50.614
56491W        W48415  39.698  41.697  51.063
56492W        W48416  36.698  14.759  53.773
56493W        W48417  29.722  31.718  52.898
56494W        W48418  42.682  28.247  53.323
56495W        W48419  35.229  25.755  52.421
56496W        W48420  21.715  37.729  50.149
56497W        W48421  35.195  30.240  53.813
56498W        W48422  39.191  14.263  52.430
56499W        W48423   9.265  30.729  51.966
56500W        W48424   7.784   9.267  53.794
56501W        W48425  39.226  40.694  53.346
56502W        W48426   2.292  44.717  51.039
56503W        W48427  23.217  43.209  51.515
56504W        W48428  47.188  42.228  51.036
56505W        W48429  18.758  34.722  53.775
56506W        W48430  26.240  48.220  49.697
56507W        W48431  39.702  35.195  52.429
56508W        W48432  11.273  33.695  51.518
56509W        W48433   8.247   4.765  51.046
56510W        W48434  20.223  26.725  49.695
56511W        W48435   6.759  48.191  49.704
56512W        W48436  29.214  36.214  49.704
56513W        W48437  44.705  26.709  51.520
56514W        W48438   8.772  29.245  52.896
56515W        W48439  31.239   6.286  52.876
56516W        W48440  46.175  47.219  51.969
56517W        W48441  18.758  15.228  51.956
56518W        W48442  40.210  30.726  50.611
56519W        W48443  12.734   1.259  50.144
56520W        W48444  48.220  27.704  52.860
56521W        W48445  19.742  16.770  51.062
56522W        W48446  14.758   3.247  52.424
56523W        W48447  15.750  35.231  51.073
56524W        W48448  40.232  32.734  50.121
56525W        W48449   9.279  41.182  53.353
56526W        W48450  47.204   8.750  50.157
56527W        W48451  22.263  19.261  51.040
56528W        W48452   1.792   2.779  49.677
56529W        W48453   4.293   0.298  51.061
56530W        W48454  37.704   2.266  52.869
56531W        W48455  30.247  47.680  52.421
56532W        W48456  44.703   8.742  51.077
56533W        W48457  45.189  10.278  52.882
56534W        W48458   3.278  31.714  52.898
56535W        W48459   9.275  10.753  53.797
56536W        W48460  20.240  22.749  52.882
56537W        W48461  36.200  10.278  50.621
56538W        W48462  47.200  29.739  53.775
56539W        W48463  47.680  18.264  49.698
56540W        W48464  39.230  44.189  52.860
56541W        W48465  24.212  39.715  52.436
56542W        W48466  39.692  27.222  52.439
56543W        W48467  37.220  13.774  51.508
56544W        W48468  24.232   1.792  51.501
56545W        W48469  32.724  30.725  49.695
56546W        W48470  38.195  43.216  50.583
56547W        W48471  41.231   1.748  53.810
56548W        W48472  32.232  45.189  51.978
56549W        W48473  17.266  19.724  51.530
56550W        W48474  17.749  25.752  51.501
56551W        W48475  15.746  28.233  51.038
56552W        W48476  42.220  37.224  51.518
56553W        W48477  37.205   1.292  50.144
56554W        W48478  28.740  43.727  52.408
56555W        W48479  21.254  18.742  53.779
56556W        W48480  18.262  38.725  50.142
56557W        W48481  14.256  17.269  53.798
56558W        W48482  18.727  30.704  51.961
56559W        W48483  25.212  20.257  50.616
56560W        W48484  23.728  46.689  53.782
56561W        W48485  29.212   5.280  49.690
56562W        W48486  38.706  22.720  52.428
56563W        W48487  47.205  22.258  51.965
56564W        W48488  22.719  37.731  51.524
56565W        W48489   3.751  33.737  49.686
56566W        W48490  46.196  38.693  50.142
56567W        W48491   0.785  38.217  51.505
56568W        W48492  46.201  38.201  53.320
56569W        W48493  19.750  31.699  52.428
56570W        W48494   8.783  33.739  50.159
56571W        W48495  35.201  10.248  53.333
56572W        W48496  29.705   8.247  53.798
56573W        W48497  12.263   7.273  51.514
56574W        W48498   5.748  11.271  50.608
56575W        W48499  29.718  41.184  53.815
56576W        W48500  25.234  40.223  52.439
56577W        W48501   7.738  31.206  49.668
56578W        W48502  47.686   3.764  50.150
56579W        W48503  27.752  10.234  50.152
56580W        W48504  30.212  13.768  53.340
56581W        W48505  29.723   9.752  52.405
56582W        W48506   6.761   9.271  51.991
56583W        W48507  19.737  47.186  51.528
56584W        W48508  11.731  29.716  49.688
56585W        W48509  29.711  35.238  50.578
56586W        W48510  29.707  14.739  50.166
56587W        W48511   0.784  18.261  49.702
56588W        W48512  43.181  27.250  51.067
56589W        W48513  16.246  44.225  53.335
56590W        W48514   0.267  42.227  52.876
56591W        W48515  47.688  22.730  51.518
56592W        W48516  41.695  29.208  49.678
56593W        W48517  48.214  44.216  51.496
56594W        W48518   4.746   8.269  49.680
56595W        W48519  43.707   0.773  51.953
56596W        W48520  18.720  39.729  51.075
56597W        W48521  16.771  25.220  52.444
56598W        W48522  37.692   5.767  51.510
56599W        W48523  31.201  46.206  51.951
56600W        W48524  20.250  30.742  50.135
56601W        W48525  24.755   5.770  53.812
56602W        W48526  42.221  25.727  53.811
56603W        W48527  22.718  45.718  49.700
56604W        W48528  33.701  36.196  51.525
56605W        W48529  12.767  30.702  49.692
56606W        W48530  47.719   8.241  51.986
56607W        W48531  16.264  14.749  52.861
56608W        W48532  12.776  13.735  50.164
56609W        W48533   7.247  48.179  51.528
56610W        W48534  35.703  22.261  51.967
56611W        W48535   6.270  38.689  51.045
56612W        W48536  21.761  46.717  51.976
56613W        W48537   5.785  26.712  50.610
56614W        W48538  47.686  26.737  53.796
56615W        W48539  22.248  20.757  53.800
56616W        W48540  11.274  11.259  50.608
56617W        W48541  15.251  14.236  53.778
56618W        W48542  34.216  13.748  51.979
56619W        W48543  19.741  28.239  51.036
56620W        W48544  44.221  11.735  52.419
56621W        W48545   4.760  35.712  50.608
56622W        W48546  20.761  39.697  49.704
56623W        W48547  18.767  22.237  51.508
56624W        W48548  21.734  48.184  51.968
56625W        W48549  11.248  26.754  50.585
56626W        W48550  16.268  20.759  51.971
56627W        W48551  25.745  11.259  52.428
56628W        W48552  26.735  44.690  51.982
56629W        W48553  30.708  32.731  50.157
56630W        W48554   5.259  42.199  51.042
56631W        W48555  27.244  16.244  50.121
56632W        W48556  42.705  28.230  51.056
56633W        W48557  20.721  14.245  49.679
56634W        W48558   4.752  41.723  52.422
56635W        W48559   7.244  22.743  50.611
56636W        W48560  17.750   6.756  51.052
56637W        W48561  28.231  48.194  53.340
56638W        W48562  25.233  34.711  51.968
56639W        W48563  35.698  47.711  52.902
56640W        W48564  19.224  13.742  50.608
56641W        W48565  24.748   0.289  52.428
56642W        W48566  23.758  32.226  51.954
56643W        W48567  20.756  29.245  50.121
56644W        W48568  39.731   0.778  51.060
56645W        W48569  45.675  28.747  50.139
56646W        W48570  26.730  26.215  49.705
56647W        W48571  41.708  27.714  52.405
56648W        W48572  14.268  38.698  51.526
56649W        W48573  31.738  32.741  50.139
56650W        W48574   6.251   1.285  49.701
56651W        W48575  29.728  47.687  49.682
56652W        W48576  44.208  44.209  51.045
56653W        W48577  24.221  20.242  52.423
56654W        W48578  42.704  30.747  49.707
56655W        W48579  17.757  36.715  53.342
56656W        W48580  34.713  17.258  50.586
56657W        W48581  11.239  36.727  51.510
56658W        W48582  27.241  14.743  49.678
56659W        W48583  35.733  13.229  50.602
56660W        W48584  46.708  46.722  50.605
56661W        W48585  10.247  12.776  51.068
56662W        W48586  42.717   7.255  49.686
56663W        W48587  42.695  30.230  53.336
56664W        W48588  14.772   5.766  51.073
56665W        W48589  10.740  47.174  51.071
56666W        W48590  34.204  34.194  51.530
56667W        W48591   9.775  38.716  52.900
56668W        W48592  13.764  18.222  53.317
56669W        W48593  43.724   2.263  51.045
56670W        W48594   8.757   6.265  49.687
56671W        W48595  28.724  12.270  53.783
56672W        W48596   7.781  22.730  50.597
56673W        W48597   4.777  46.721  53.343
56674W        W48598  27.749  35.206  50.619
56675W        W48599  34.731  33.221  52.869
56676W        W48600  42.684   7.288  50.604
56677W        W48601  17.234  24.717  53.804
56678W        W48602  45.180  18.250  52.892
56679W        W48603  47.197  22.244  52.417
56680W        W48604  18.221   9.249  50.598
56681W        W48605  13.746  32.230  52.875
56682W        W48606  11.761   8.264  51.978
56683W        W48607  15.226  41.691  51.041
56684W        W48608  11.732   2.781  52.868
56685W        W48609  46.200   2.278  53.803
56686W        W48610   4.254  14.728  50.131
56687W        W48611   0.778  42.213  51.505
56688W        W48612  46.696  24.231  50.579
56689W        W48613  24.734  29.219  49.707
56690W        W48614  27.712  46.698  52.883
56691W        W48615  45.710  41.682  51.987
56692W        W48616  27.226  14.228  50.127
56693W        W48617  45.190  15.236  51.068
56694W        W48618  19.225  47.676  51.983
56695W        W48619  26.223  41.206  53.358
56696W        W48620   0.793  39.200  51.970
56697W        W48621  14.750  29.202  52.867
56698W        W48622  43.214  34.204  53.328
56699W        W48623  19.252  46.702  51.964
56700W        W48624  43.702  21.716  51.075
56701W        W48625  47.188  20.725  52.433
56702W        W48626  24.724  24.726  50.606
56703W        W48627  37.694  27.251  51.514
56704W        W48628  45.723   9.260  49.680
56705W        W48629  36.691  47.206  51.992
56706W        W48630  25.228  39.696  53.323
56707W        W48631  23.245  26.735  50.149
56708W        W48632  25.236  18.739  49.671
56709W        W48633  14.763  28.208  50.587
56710W        W48634   0.749  20.736  49.685
56711W        W48635   8.241   8.761  51.978
56712W        W48636  12.238  18.229  51.499
56713W        W48637  45.708  40.733  53.775
56714W        W48638  14.242  10.735  50.166
56715W        W48639   1.275  25.236  51.046
56716W        W48640  17.234  10.250  51.065
56717W        W48641  12.744   3.758  53.801
56718W        W48642   2.281  13.761  49.698
56719W        W48643  46.718   7.785  53.339
56720W        W48644  17.240  12.251  51.493
56721W        W48645  32.699  20.718  52.903
56722W        W48646  18.738   1.273  50.587
56723W        W48647  13.270  14.761  52.886
56724W        W48648  48.218  33.719  52.435
56725W        W48649  32.738  37.201  52.876
56726W        W48650  42.681  12.251  53.808
56727W        W48651  34.198  31.208  51.035
56728W        W48652  25.227  17.769  52.409
56729W        W48653  14.239   6.772  49.673
56730W        W48654  10.769  48.186  51.531
56731W        W48655  15.754  38.200  51.496
56732W        W48656  44.207   9.240  49.701
56733W        W48657   8.252  34.235  53.801
56734W        W48658  30.716  40.710  53.808
56735W        W48659  47.188   2.270  53.816
56736W        W48660   1.257   8.751  51.049
56737W        W48661  35.715  29.244  53.330
56738W        W48662  24.717   0.286  51.069
56739W        W48663  37.205  30.229  53.794
56740W        W48664  47.705  45.690  51.077
56741W        W48665  19.247  44.698  53.790
56742W        W48666  14.755   0.766  52.432
56743W        W48667   7.757  37.219  51.961
56744W        W48668  20.266  34.203  50.156
56745W        W48669  46.690  10.275  52.873
56746W        W48670   5.286  26.215  52.881
56747W        W48671   2.774  15.758  52.891
56748W        W48672   2.280  10.750  53.807
56749W        W48673  20.243  13.757  51.517
56750W        W48674  10.283  22.730  51.956
56751W        W48675  33.218   6.282  50.143
56752W        W48676  10.761  44.186  52.418
56753W        W48677  20.722  34.732  50.591
56754W        W48678  25.750   2.255  50.621
56755W        W48679  24.749  16.768  53.790
56756W        W48680  21.730  14.750  49.686
56757W        W48681  27.234  27.709  52.877
56758W        W48682  31.233  21.752  51.976
56759W        W48683   7.273  13.770  51.516
56760W        W48684  15.264   7.749  52.405
56761W        W48685   8.779  35.711  49.670
56762W        W48686  30.248   5.781  50.154
56763W        W48687  40.709  21.263  51.973
56764W        W48688   2.280  38.700  52.417
56765W        W48689  34.712  16.263  53.791
56766W        W48690  31.726  48.195  51.969
56767W        W48691  18.228  45.212  50.599
56768W        W48692  20.241  40.709  53.336
56769W        W48693   3.271  43.205  51.979
56770W        W48694  18.258   9.743  53.330
56771W        W48695  15.755  27.705  53.358
56772W        W48696   9.267  10.733  51.534
56773W        W48697  21.261   8.273  51.493
56774W        W48698  39.209   4.288  50.154
56775W        W48699   5.776  37.202  53.781
56776W        W48700  34.194  26.254  50.616
56777W        W48701  38.699   2.254  49.672
56778W        W48702  12.231  30.738  52.424
56779W        W48703  38.707  36.221  49.703
56780W        W48704  25.747  33.196  52.430
56781W        W48705  26.754  45.218  51.503
56782W        W48706  22.725  45.187  53.777
56783W        W48707   6.753   4.747  53.323
56784W        W48708  11.255   4.262  53.348
56785W        W48709  26.251  20.229  51.971
56786W        W48710   3.769  35.210  53.782
56787W        W48711   7.784  41.687  50.615
56788W        W48712  45.196  12.754  49.685
56789W        W48713  29.710  24.735  53.785
56790W        W48714   7.263  40.706  52.901
56791W        W48715  47.173  44.709  53.342
56792W        W48716  44.200  32.738  50.594
56793W        W48717  30.209  37.231  49.670
56794W        W48718  44.190  41.228  53.794
56795W        W48719  32.735  43.218  50.162
56796W        W48720  13.762  13.775  53.803
56797W        W48721  41.704   9.247  51.966
56798W        W48722  11.261   5.246  50.140
56799W        W48723  34.242  30.719  51.511
56800W        W48724  20.258  37.724  53.816
56801W        W48725  29.721  16.741  53.787
56802W        W48726  28.705   2.748  53.784
56803W        W48727  16.234  48.171  51.505
56804W        W48728  34.700  13.253  51.525
56805W        W48729  35.733  32.706  53.361
56806W        W48730  24.747  22.254  50.621
56807W        W48731  37.729  47.701  52.886
56808W        W48732  31.248  38.223  50.146
56809W        W48733  18.743  44.213  52.859
56810W        W48734   1.749  30.225  51.034
56811W        W48735  42.197  14.749  51.042
56812W        W48736  37.711  11.263  53.318
56813W        W48737   1.750   9.760  50.598
56814W        W48738  16.256  33.696  53.814
56815W        W48739  29.742  43.700  51.990
56816W        W48740  38.693  33.725  53.318
56817W        W48741  24.715  26.752  52.886
56818W        W48742  31.714  18.241  51.491
56819W        W48743   4.748  32.205  51.952
56820W        W48744  18.252  15.245  52.439
56821W        W48745  39.695  33.716  51.949
56822W        W48746  38.189  19.261  53.784
56823W        W48747  15.731  40.200  52.869
56824W        W48748  10.235  30.704  53.342
56825W        W48749  18.752  44.179  50.157
56826W        W48750  14.241  36.220  52.861
56827W        W48751  16.226  24.246  51.056
56828W        W48752  12.237  31.223  49.670
56829W        W48753  33.203  47.684  53.350
56830W        W48754  13.254  43.691  52.428
56831W        W48755  31.208  10.781  49.667
56832W        W48756  39.730  22.237  50.620
56833W        W48757  26.747  26.234  52.878
56834W        W48758  34.194  21.757  49.688
56835W        W48759  13.774  12.243  51.048
56836W        W48760   9.746   0.775  52.426
56837W        W48761  33.202  11.258  50.153
56838W        W48762  44.705  43.227  53.335
56839W        W48763  10.778   9.283  51.039
56840W        W48764  33.740  13.754  51.963
56841W        W48765  14.752  19.735  50.145
56842W        W48766   9.765   7.770  49.677
56843W        W48767  30.725  12.260  51.965
56844W        W48768  37.223  12.742  51.960
56845W        W48769  42.717  47.672  51.531
56846W        W48770  38.698  11.258  51.980
56847W        W48771  32.729  29.203  53.335
56848W        W48772   9.758  32.706  53.360
56849W        W48773  20.265  42.700  52.877
56850W        W48774  25.250  17.260  51.060
56851W        W48775   9.277   3.761  50.604
56852W        W48776  31.222  25.748  53.346
56853W        W48777   2.770  28.718  51.055
56854W        W48778  13.735  38.221  51.966
56855W        W48779  36.216  45.688  50.132
56856W        W48780  31.726  27.244  51.518
56857W        W48781  40.209  13.753  52.860
56858W        W48782  42.223  48.184  50.620
56859W        W48783  26.733  35.733  49.691
56860W        W48784  44.214  18.226  53.347
56861W        W48785  38.689  15.252  51.967
56862W        W48786  27.716  40.702  53.783
56863W        W48787  28.232  23.213  51.518
56864W        W48788  10.237  24.726  49.697
56865W        W48789   9.763   6.781  50.620
56866W        W48790   5.757  10.283  50.604
56867W        W48791  41.191  26.710  53.351
56868W        W48792  22.250   0.270  51.072
56869W        W48793   4.278  16.268  51.077
56870W        W48794   1.285  27.209  50.124
56871W        W48795  25.243  20.241  50.138
56872W        W48796  21.250  34.202  49.669
56873W        W48797  19.755  13.743  51.534
56874W        W48798  39.732  43.222  51.507
56875W        W48799  30.236   2.754  50.620
56876W        W48800  41.682  41.691  52.880
56877W        W48801   1.768  32.205  51.963
56878W        W48802  43.700  14.241  51.043
56879W        W48803  17.266  29.219  52.892
56880W        W48804  36.191  48.214  53.316
56881W        W48805   6.742  31.723  52.875
56882W        W48806   0.779  21.727  51.491
56883W        W48807  34.713  37.231  52.432
56884W        W48808  31.235  25.756  53.798
56885W        W48809  11.276  27.244  50.591
56886W        W48810  27.706  24.734  50.583
56887W        W48811  19.260   1.263  50.145
56888W        W48812   6.758  47.710  50.152
56889W        W48813  14.731  10.269  52.414
56890W        W48814  32.233   1.268  51.044
56891W        W48815  32.746  46.676  53.319
56892W        W48816  19.740   5.775  53.808
56893W        W48817  13.232  23.715  53.336
56894W        W48818  23.753   7.265  50.608
56895W        W48819   5.764   0.278  49.674
56896W        W48820  16.226   3.273  50.580
56897W        W48821  33.198  42.684  51.067
56898W        W48822  13.264  45.193  53.320
56899W        W48823  16.240  33.738  50.142
56900W        W48824  34.205   5.784  51.990
56901W        W48825  28.214  44.694  50.578
56902W        W48826   1.279  13.244  49.705
56903W        W48827  17.235  44.711  51.967
56904W        W48828  32.208  10.771  51.051
56905W        W48829   9.743   7.244  51.059
56906W        W48830   8.242  38.197  52.432
56907W        W48831   1.776  36.732  52.864
56908W        W48832  26.713  38.729  51.509
56909W        W48833  33.721  32.218  52.406
56910W        W48834  34.716  12.758  52.415
56911W        W48835  27.745   2.752  53.335
56912W        W48836  12.247  17.224  52.881
56913W        W48837  10.246  26.253  53.776
56914W        W48838  35.206  28.239  49.681
56915W        W48839  15.274  20.745  51.502
56916W        W48840  13.751  19.251  52.876
56917W        W48841  25.234   7.763  49.681
56918W        W48842  26.743  45.682  53.773
56919W        W48843  18.235  30.741  52.865
56920W        W48844  21.225   3.786  53.781
56921W        W48845  47.209  39.188  53.816
56922W        W48846  44.701  44.194  50.603
56923W        W48847  30.218  22.228  49.697
56924W        W48848  37.229  33.735  52.885
56925W        W48849  34.194  40.202  50.620
56926W        W48850  28.750   9.774  50.618
56927W        W48851   5.755  46.192  52.886
56928W        W48852  14.259  25.737  53.321
56929W        W48853  38.225   2.759  51.508
56930W        W48854  31.245  19.755  50.622
56931W        W48855   0.797  21.235  53.327
56932W        W48856  42.201  32.241  51.077
56933W        W48857  26.224  37.709  51.072
56934W        W48858  23.740  33.730  52.887
56935W        W48859  40.688  12.741  51.982
56936W        W48860   6.272   8.741  53.780
56937W        W48861  15.748  21.261  50.164
56938W        W48862  21.216  25.714  53.802
56939W        W48863  41.206  10.735  49.672
56940W        W48864  40.696  14.264  50.139
56941W        W48865  34.198  12.766  51.038
56942W        W48866  41.699   2.765  52.882
56943W        W48867  11.765  28.228  53.351
56944W        W48868  30.713   3.291  50.604
56945W        W48869  25.225  36.204  50.590
56946W        W48870  33.695  13.232  52.424
56947W        W48871   0.783   5.787  51.053
56948W        W48872  35.192  29.728  51.508
56949W        W48873   6.286  42.222  53.799
56950W        W48874  42.191  28.749  50.161
56951W        W48875  20.743  31.226  51.528
56952W        W48876   3.762  21.236  51.055
56953W        W48877  35.733  44.692  51.042
56954W        W48878  33.207  21.756  50.123
56955W        W48879  43.716  15.254  52.409
56956W        W48880  21.757  36.694  51.036
56957W        W48881  13.240  21.754  52.863
56958W        W48882   6.756  31.238  50.595
56959W        W48883  17.728  35.205  53.804
56960W        W48884  15.736  15.754  52.866
56961W        W48885   9.737  34.706  49.697
56962W        W48886  19.248  25.736  52.885
56963W        W48887  25.215  37.238  52.426
56964W        W48888  34.732  16.762  50.620
56965W        W48889  15.239  33.244  51.960
56966W        W48890  17.230  28.745  50.582
56967W        W48891  34.224  10.735  53.335
56968W        W48892  47.203   8.762  52.437
56969W        W48893  30.708  17.271  51.505
56970W        W48894  42.716  46.193  50.131
56971W        W48895  16.770   1.783  53.325
56972W        W48896  10.737   0.760  50.617
56973W        W48897   5.269  41.185  51.956
56974W        W48898  34.233  10.747  49.694
56975W        W48899  46.698  33.698  51.522
56976W        W48900  26.255   1.292  52.871
56977W        W48901  19.234   0.294  50.129
56978W        W48902  44.214  10.253  51.960
56979W        W48903  29.743  16.768  50.591
56980W        W48904  44.208  35.202  51.492
56981W        W48905  10.775   7.244  51.520
56982W        W48906  23.727  32.715  52.905
56983W        W48907  46.688  15.758  52.893
56984W        W48908  36.230  31.715  53.813
56985W        W48909  23.255  26.234  49.675
56986W        W48910  36.718   6.264  51.954
56987W        W48911  47.674  47.687  49.690
56988W        W48912   1.287  40.717  49.668
56989W        W48913  30.700  18.226  51.495
56990W        W48914   0.269  27.216  53.330
56991W        W48915   6.739   5.763  49.702
56992W        W48916  39.718  31.701  50.585
56993W        W48917  22.247   2.786  51.518
56994W        W48918  13.274  14.740  51.044
56995W        W48919   8.274  45.675  52.859
56996W        W48920  33.207  41.227  51.954
56997W        W48921   0.257   2.293  51.042
56998W        W48922  34.730  14.275  51.498
56999W        W48923   3.263  18.265  53.316
57000W        W48924  41.717  35.738  51.958
57001W        W48925  10.751  39.204  51.051
57002W        W48926  36.713  47.711  51.036
57003W        W48927  23.217  23.720  51.494
57004W        W48928  24.215  30.242  51.964
57005W        W48929  44.698  35.212  53.345
57006W        W48930   2.257  29.214  51.513
57007W        W48931   4.292  39.235  51.535
57008W        W48932  27.743  35.209  51.969
57009W        W48933  38.236  34.696  51.040
57010W        W48934  37.690  17.258  50.599
57011W        W48935  28.722  47.718  50.597
57012W        W48936   6.785   7.253  51.986
57013W        W48937   0.764   4.264  52.431
57014W        W48938   5.242  36.704  51.979
57015W        W48939  43.723  16.761  51.069
57016W        W48940  28.732  11.748  49.674
57017W        W48941   6.275  17.233  51.492
57018W        W48942  20.738  19.757  51.046
57019W        W48943   5.756  41.183  51.987
57020W        W48944  25.243  46.695  50.594
57021W        W48945  23.723  28.709  51.508
57022W        W48946  26.707  43.219  52.885
57023W        W48947   9.741  42.685  53.805
57024W        W48948  31.244  40.190  51.065
57025W        W48949  33.224  43.212  50.160
57026W        W48950  24.746  21.758  53.795
57027W        W48951  27.210  27.709  52.415
57028W        W48952  22.754  32.228  52.437
57029W        W48953  16.732   8.785  53.355
57030W        W48954   7.276  28.246  52.881
57031W        W48955  36.210  28.718  51.957
57032W        W48956  25.239   0.750  51.533
57033W        W48957  42.229  30.702  51.522
57034W        W48958  25.708   4.765  50.156
57035W        W48959  40.695  40.686  51.506
57036W        W48960  46.706  27.748  51.073
57037W        W48961  40.231  30.200  51.050
57038W        W48962  43.197  29.736  52.416
57039W        W48963  38.701   1.754  49.683
57040W        W48964   3.751  28.734  53.778
57041W        W48965  21.254  39.721  50.165
57042W        W48966  46.212  10.281  53.808
57043W        W48967  24.253  42.715  53.810
57044W        W48968  14.232  16.229  50.143
57045W        W48969   6.776   8.241  50.143
57046W        W48970  17.247  16.265  53.795
57047W        W48971  14.252   5.283  53.352
57048W        W48972  44.221   6.785  53.316
57049W        W48973  27.251  39.201  52.424
57050W        W48974  21.754  13.275  51.056
57051W        W48975   6.753  47.684  51.957
57052W        W48976  27.221  36.213  53.807
57053W        W48977   4.753  37.726  52.904
57054W        W48978  14.238  44.224  52.404
57055W        W48979  42.701  30.720  52.432
57056W        W48980   7.242  37.713  50.160
57057W        W48981  45.221  23.728  51.967
57058W        W48982  28.252  20.255  53.799
57059W        W48983  24.241  32.227  50.577
57060W        W48984  40.197   9.772  49.703
57061W        W48985  31.720  34.229  53.816
57062W        W48986  32.726  21.751  49.674
57063W        W48987  37.691  28.737  51.948
57064W        W48988  26.244  19.221  52.411
57065W        W48989   5.290  33.214  53.353
57066W        W48990  39.206  20.756  51.985
57067W        W48991  31.729  17.736  51.977
57068W        W48992  43.202  47.189  51.518
57069W        W48993   0.778  34.221  52.404
57070W        W48994  24.750  47.691  53.811
57071W        W48995  42.701  12.756  52.407
57072W        W48996  21.223  25.710  52.887
57073W        W48997   1.771   4.277  50.123
57074W        W48998  37.189  20.244  51.984
57075W        W48999  38.722   3.260  53.815
57076W        W49000   4.742  48.172  50.136
57077W        W49001  14.261  19.247  50.583
57078W        W49002  22.736  13.230  51.948
57079W        W49003   2.777  31.698  52.903
57080W        W49004  15.264   5.245  49.677
57081W        W49005  18.229  34.728  50.126
57082W        W49006   0.777  41.218  50.600
57083W        W49007  30.240  17.737  51.498
57084W        W49008   2.770  19.758  51.508
57085W        W49009  39.208  27.240  51.070
57086W        W49010  10.734  38.705  51.530
57087W        W49011  37.725  32.199  49.665
57088W        W49012  22.749  18.742  49.702
57089W        W49013  41.227   7.786  51.517
57090W        W49014  11.233  48.206  51.052
57091W        W49015  11.247  18.240  50.583
57092W        W49016   9.736  11.265  51.525
57093W        W49017  21.745   3.745  50.593
57094W        W49018  42.194   9.283  51.951
57095W        W49019  41.197  47.680  50.601
57096W        W49020   1.253  25.224  53.325
57097W        W49021  30.737  47.703  52.894
57098W        W49022  12.230  38.193  49.691
57099W        W49023  20.758  44.682  51.521
57100W        W49024  19.724  26.228  51.978
57101W        W49025   1.750  39.226  53.357
57102W        W49026   8.281  32.198  53.320
57103W        W49027  12.276   2.781  53.793
57104W        W49028  48.209  34.207  51.523
57105W        W49029  37.233  14.232  51.955
57106W        W49030  29.218  35.196  51.038
57107W        W49031  30.236  41.683  49.689
57108W        W49032  18.760  10.769  51.520
57109W        W49033  35.695  45.191  49.689
57110W        W49034  30.749  22.739  53.355
57111W        W49035  28.204  47.178  50.593
57112W        W49036  18.249  24.235  51.494
57113W        W49037  42.725   0.272  52.415
57114W        W49038   0.766  19.756  51.053
57115W        W49039  43.700   2.266  52.428
57116W        W49040  24.749  48.217  52.417
57117W        W49041  18.231  48.191  53.778
57118W        W49042   5.743  48.181  53.799
57119W        W49043  41.189  30.214  50.623
57120W        W49044  45.210  37.228  53.335
57121W        W49045  42.719  16.756  52.437
57122W        W49046  30.244   9.240  52.429
57123W        W49047   0.767  38.724  50.581
57124W        W49048  23.760  26.749  51.035
57125W        W49049  10.749  12.230  50.585
57126W        W49050  24.758  38.230  49.707
57127W        W49051   9.277   0.776  52.899
57128W        W49052  42.712  11.738  50.129
57129W        W49053   5.751  41.205  52.416
57130W        W49054   5.767  37.730  51.952
57131W        W49055  22.714  26.731  52.414
57132W        W49056   4.780  42.701  50.613
57133W        W49057  39.209   4.776  51.989
57134W        W49058  23.721  32.242  50.592
57135W        W49059  18.232  47.699  51.038
57136W        W49060  23.244  28.752  51.527
57137W        W49061   4.753  14.268  51.046
57138W        W49062  47.720  13.772  52.404
57139W        W49063  39.228   5.266  51.990
57140W        W49064  39.197  43.715  51.966
57141W        W49065   5.277  33.219  52.428
57142W        W49066  30.733  33.210  53.359
57143W        W49067   9.737  10.262  51.036
57144W        W49068  39.197   9.236  50.602
57145W        W49069  25.223   4.744  49.706
57146W        W49070  22.721  19.253  50.581
57147W        W49071  18.739   4.266  51.035
57148W        W49072  27.716  32.716  52.438
57149W        W49073   3.769  24.738  53.325
57150W        W49074  30.727  30.705  51.504
57151W        W49075  25.742   6.284  50.129
57152W        W49076   6.772  22.224  51.953
57153W        W49077  42.718  21.228  53.793
57154W        W49078   7.739   4.769  49.685
57155W        W49079   6.258  36.205  49.696
57156W        W49080  11.271  23.213  52.889
57157W        W49081  48.204   6.288  52.861
57158W        W49082   0.763  40.206  51.988
57159W        W49083  48.182  30.205  51.514
57160W        W49084  17.768   6.784  50.122
57161W        W49085  23.746  41.188  49.704
57162W        W49086  43.684  30.732  51.055
57163W        W49087  46.221  23.223  50.131
57164W        W49088  44.194  45.223  53.339
57165W        W49089  32.226  15.225  49.691
57166W        W49090  23.756  16.735  49.707
57167W        W49091  42.230   2.753  51.977
57168W        W49092  36.736  13.245  52.860
57169W        W49093  39.227   2.272  52.865
57170W        W49094   0.775  29.206  50.137
57171W        W49095  25.237   8.261  49.685
57172W        W49096  19.746  11.774  50.597
57173W        W49097  17.724  22.217  51.973
57174W        W49098  20.263  36.713  52.900
57175W        W49099  13.269   4.769  50.143
57176W        W49100  44.207  15.246  50.612
57177W        W49101  25.720  24.239  49.694
57178W        W49102  29.740  37.227  51.972
57179W        W49103  13.257  17.263  51.511
57180W        W49104  32.721  14.732  49.698
57181W        W49105  11.258  16.764  50.165
57182W        W49106  24.748  39.698  50.613
57183W        W49107  24.230  44.682  50.591
57184W        W49108  32.212   2.788  53.783
57185W        W49109  33.725   0.792  53.346
57186W        W49110  33.226  39.192  53.357
57187W        W49111   9.756  33.695  53.772
57188W        W49112  21.733   6.251  50.593
57189W        W49113  26.246  31.207  53.799
57190W        W49114  22.226  42.721  50.138
57191W        W49115  18.748  39.719  53.335
57192W        W49116  45.708  43.682  51.498
57193W        W49117  21.750  42.717  52.864
57194W        W49118  46.187  10.773  51.967
57195W        W49119  26.753  26.221  53.351
57196W        W49120   0.769  26.214  53.360
57197W        W49121   3.260  34.742  49.696
57198W        W49122  12.251  37.197  50.126
57199W        W49123  24.228  16.236  51.958
57200W        W49124   4.270  40.699  53.782
57201W        W49125  45.696  20.254  50.615
57202W        W49126   0.260  25.212  49.688
57203W        W49127  31.223  18.252  52.427
57204W        W49128  15.761  30.736  51.046
57205W        W49129  23.224  15.230  52.405
57206W        W49130  33.203  30.238  52.436
57207W        W49131  43.689  29.240  52.436
57208W        W49132  32.232  12.775  51.510
57209W        W49133   0.780   7.739  50.607
57210W        W49134  10.740  26.217  50.592
57211W        W49135  10.753  22.252  51.500
57212W        W49136  36.730  28.251  50.620
57213W        W49137  14.770  44.204  51.525
57214W        W49138  10.767  28.221  50.613
57215W        W49139  45.702  35.726  51.073
57216W        W49140   5.766   7.239  53.786
57217W        W49141  40.698   6.255  52.418
57218W        W49142  48.185  12.740  49.673
57219W        W49143   4.749  43.723  49.668
57220W        W49144  37.216  17.722  51.978
57221W        W49145   9.269  13.245  50.139
57222W        W49146  10.282   3.281  49.687
57223W        W49147  47.174  39.214  52.443
57224W        W49148  41.702  13.236  51.950
57225W        W49149  46.689  38.732  51.061
57226W        W49150  13.259  28.719  51.512
57227W        W49151  11.750  35.717  52.863
57228W        W49152  24.250  18.244  50.148
57229W        W49153   4.262  17.224  52.875
57230W        W49154  36.227  25.249  52.876
57231W        W49155  44.223   4.751  52.902
57232W        W49156  21.750   7.268  53.331
57233W        W49157  14.747   8.269  50.594
57234W        W49158  20.747  18.240  51.965
57235W        W49159  36.230  31.238  50.153
57236W        W49160  22.246  13.757  49.666
57237W        W49161   4.270  27.218  49.687
57238W        W49162  34.220  28.706  51.067
57239W        W49163  36.230  17.229  51.990
57240W        W49164   5.789  29.208  53.342
57241W        W49165   7.286  21.741  50.148
57242W        W49166  41.219  26.708  49.697
57243W        W49167   7.255   0.781  51.053
57244W        W49168  28.235  32.219  52.437
57245W        W49169  32.210  15.243  53.360
57246W        W49170  31.242  21.247  51.510
57247W        W49171   7.769  11.773  51.494
57248W        W49172  28.213   6.767  53.348
57249W        W49173  18.266  27.710  53.805
57250W        W49174  12.268  10.244  53.804
57251W        W49175  11.740  27.718  53.791
57252W        W49176  10.773  31.209  49.706
57253W        W49177  39.191   3.247  51.953
57254W        W49178  27.209   3.782  49.691
57255W        W49179   7.780   5.768  50.598
57256W        W49180  30.248  41.684  50.581
57257W        W49181  35.227  26.724  52.878
57258W        W49182  15.734  15.765  50.151
57259W        W49183  17.262   4.244  50.154
57260W        W49184  32.721  10.272  52.443
57261W        W49185  25.254  15.241  50.164
57262W        W49186   3.269  24.759  53.791
57263W        W49187  27.214   1.251  51.498
57264W        W49188   4.749  47.682  52.898
57265W        W49189  41.692  33.219  50.165
57266W        W49190  38.218  44.720  53.785
57267W        W49191  25.215  47.680  51.068
57268W        W49192  34.722  22.243  53.788
57269W        W49193  27.247   8.739  52.863
57270W        W49194   5.742  38.735  53.347
57271W        W49195   3.749  40.695  49.670
57272W        W49196   2.778  30.243  51.970
57273W        W49197   2.768  25.230  51.507
57274W        W49198  35.226  31.705  49.705
57275W        W49199  43.719  11.273  53.807
57276W        W49200  22.741   0.782  51.976
57277W        W49201   4.774  18.735  53.801
57278W        W49202  19.244  21.725  52.417
57279W        W49203  36.230  16.240  51.044
57280W        W49204   5.250   9.266  50.615
57281W        W49205  24.756  10.248  50.157
57282W        W49206  20.227  24.755  53.360
57283W        W49207  20.218  34.223  51.507
57284W        W49208  25.213   0.751  51.076
57285W        W49209  24.745  14.245  52.891
57286W        W49210  43.693  13.244  51.505
57287W        W49211   8.278  21.751  49.710
57288W        W49212  45.215  38.725  52.433
57289W        W49213  40.233  15.259  53.350
57290W        W49214  14.756   1.253  51.515
57291W        W49215   9.261  21.749  50.621
57292W        W49216  34.724  41.697  49.687
57293W        W49217  19.225  21.244  53.358
57294W        W49218  13.738  15.249  51.076
57295W        W49219  47.191  34.236  49.708
57296W        W49220  39.189  10.752  53.804
57297W        W49221  19.230  16.757  51.513
57298W        W49222  19.243  11.233  50.622
57299W        W49223  22.719  46.181  53.333
57300W        W49224  14.230  47.714  53.803
57301W        W49225  18.269  38.699  53.336
57302W        W49226  23.728  38.733  53.800
57303W        W49227   0.292  17.770  52.874
57304W        W49228  36.205  36.218  51.504
57305W        W49229  47.198  37.711  51.077
57306W        W49230   0.751  45.207  49.670
57307W        W49231   2.764  17.231  52.876
57308W        W49232  40.190  17.760  53.322
57309W        W49233  19.239  12.748  52.865
57310W        W49234  38.223   3.755  50.603
57311W        W49235  48.192  24.256  50.153
57312W        W49236  20.760  41.218  52.409
57313W        W49237  45.195  16.249  53.336
57314W        W49238  34.200  20.237  52.407
57315W        W49239  19.730   8.254  51.992
57316W        W49240  11.751  42.713  51.511
57317W        W49241   1.783  38.724  51.050
57318W        W49242  25.212  10.237  51.518
57319W        W49243  25.209  15.244  51.034
57320W        W49244  22.737  19.757  52.868
57321W        W49245  35.239  31.203  51.504
57322W        W49246  37.234  12.756  53.321
57323W        W49247  34.706  19.726  50.588
57324W        W49248  45.684  38.719  51.517
57325W        W49249  30.737  24.735  51.498
57326W        W49250  33.204   7.786  49.673
57327W        W49251  18.253  37.704  50.578
57328W        W49252  44.693  12.267  51.041
57329W        W49253  43.217  29.232  51.498
57330W        W49254  27.254  14.275  51.502
57331W        W49255  46.219  32.738  53.356
57332W        W49256   6.279  32.221  53.360
57333W        W49257  11.755  25.725  50.161
57334W        W49258  33.239  17.741  52.879
57335W        W49259  46.676  11.779  53.803
57336W        W49260  37.730   4.268  51.991
57337W        W49261  36.732  14.252  49.667
57338W        W49262  11.763  24.709  52.874
57339W        W49263  18.743   5.243  53.774
57340W        W49264  36.205  47.202  51.971
57341W        W49265   8.279  16.257  51.055
57342W        W49266   1.752  35.701  50.161
57343W        W49267  21.252  17.748  52.437
57344W        W49268  37.708  24.737  52.413
57345W        W49269  36.719   8.264  51.952
57346W        W49270   4.292  38.205  53.330
57347W        W49271   8.250  44.209  50.140
57348W        W49272  28.709   4.751  49.698
57349W        W49273  31.698   7.739  49.696
57350W        W49274  17.735  26.739  53.787
57351W        W49275   0.791  16.745  49.664
57352W        W49276  22.260  39.731  52.441
57353W        W49277   2.749  15.747  51.068
57354W        W49278   3.757   6.781  51.974
57355W        W49279   9.769  30.246  49.674
57356W        W49280   7.257  44.712  51.529
57357W        W49281  43.220  36.197  53.775
57358W        W49282  40.721  30.247  51.496
57359W        W49283  29.750  25.230  52.423
57360W        W49284  19.252  28.745  51.991
57361W        W49285  41.702  32.722  50.586
57362W        W49286  20.736  23.258  53.322
57363W        W49287  44.206  40.693  50.129
57364W        W49288  35.727   7.783  50.606
57365W        W49289  41.229  24.259  50.585
57366W        W49290   5.753  13.240  52.890
57367W        W49291  21.755  21.236  51.061
57368W        W49292  43.224   6.276  50.124
57369W        W49293  35.692  31.719  51.047
57370W        W49294  21.257   3.284  52.861
57371W        W49295   8.269   9.284  50.166
57372W        W49296  19.234  32.240  53.334
57373W        W49297   7.750  39.714  51.990
57374W        W49298   7.265  24.235  53.810
57375W        W49299   8.767   6.742  52.414
57376W        W49300   3.276  45.197  52.881
57377W        W49301   8.263  45.699  51.527
57378W        W49302  39.229  17.740  51.527
57379W        W49303  22.223  40.695  50.584
57380W        W49304   5.285  22.229  50.596
57381W        W49305  25.237  40.720  50.598
57382W        W49306  48.207  23.213  51.066
57383W        W49307  12.775   6.272  52.877
57384W        W49308  26.239  21.257  51.523
57385W        W49309  46.684  43.685  53.354
57386W        W49310  25.742  20.223  50.162
57387W        W49311  12.264  33.232  51.069
57388W        W49312  21.222  20.231  50.612
57389W        W49313  38.695  19.252  53.805
57390W        W49314  13.250  32.199  51.052
57391W        W49315  40.704  34.726  51.953
57392W        W49316  13.246  21.224  49.689
57393W        W49317  11.277  27.252  50.159
57394W        W49318  27.253  31.233  50.578
57395W        W49319  29.732   2.787  51.058
57396W        W49320  30.722  31.224  53.330
57397W        W49321  45.200  39.698  50.580
57398W        W49322  17.734  45.218  53.799
57399W        W49323  26.242   1.762  51.517
57400W        W49324  25.214   1.765  50.595
57401W        W49325  10.774  37.229  53.783
57402W        W49326  15.734   8.280  53.324
57403W        W49327  13.234   4.762  49.686
57404W        W49328  10.767  39.696  49.699
57405W        W49329  15.740  47.184  49.680
57406W        W49330  43.697  27.748  53.350
57407W        W49331  40.202   8.764  53.355
57408W        W49332  40.700  17.251  51.502
57409W        W49333  36.690  25.220  52.432
57410W        W49334  47.713  16.272  51.513
57411W        W49335  40.224  10.761  50.598
57412W        W49336  26.255  40.215  51.949
57413W        W49337  11.773  14.240  52.867
57414W        W49338  20.225  48.171  53.799
57415W        W49339  17.238  28.247  51.496
57416W        W49340  13.749  27.218  52.439
57417W        W49341  28.749  35.224  52.405
57418W        W49342  18.247   3.286  49.684
57419W        W49343  14.734  22.749  50.151
57420W        W49344  10.264   4.267  51.511
57421W        W49345  10.271   3.750  50.142
57422W        W49346  35.696   7.256  51.529
57423W        W49347  14.258  28.739  53.347
57424W        W49348   2.789  35.231  49.683
57425W        W49349  25.249  12.253  53.785
57426W        W49350  19.757   2.758  53.357
57427W        W49351  45.193  44.205  53.352
57428W        W49352  34.719  15.233  53.784
57429W        W49353  16.265  10.282  52.896
57430W        W49354  13.236  11.259  53.356
57431W        W49355  20.757   4.758  49.701
57432W        W49356  37.226   2.276  51.077
57433W        W49357  12.746   8.237  53.809
57434W        W49358  32.730  32.246  53.785
57435W        W49359  40.687   7.248  50.579
57436W        W49360  28.735  30.742  51.506
57437W        W49361  25.251  33.211  51.954
57438W        W49362  29.217  35.205  50.613
57439W        W49363  38.203  12.278  51.509
57440W        W49364  19.253   3.778  51.509
57441W        W49365  15.734   0.263  49.708
57442W        W49366   2.277  18.722  49.709
57443W        W49367  10.268  24.248  50.586
57444W        W49368  33.726  15.763  53.796
57445W        W49369  10.265  17.224  53.324
57446W        W49370  45.182   9.756  49.682
57447W        W49371  42.194  10.739  50.132
57448W        W49372  26.722   3.266  53.779
57449W        W49373  43.687   1.291  50.157
57450W        W49374  19.721  17.259  53.348
57451W        W49375  29.224  24.217  53.351
57452W        W49376  34.727  40.715  51.526
57453W        W49377  23.236   4.275  51.062
57454W        W49378  19.742  10.749  51.076
57455W        W49379  43.720  39.208  51.988
57456W        W49380  32.232  32.739  51.988
57457W        W49381  24.246  32.698  53.360
57458W        W49382  10.279  29.206  53.789
57459W        W49383  14.760  11.248  49.670
57460W        W49384  10.249  41.205  51.040
57461W        W49385  13.751  33.718  51.967
57462W        W49386  47.217  38.195  51.986
57463W        W49387  42.188   0.288  51.039
57464W        W49388  19.268  45.183  51.518
57465W        W49389  18.268  20.265  53.332
57466W        W49390   4.288  46.714  52.427
57467W        W49391  31.210  36.194  51.535
57468W        W49392   2.294   2.767  50.605
57469W        W49393  33.731  35.239  52.904
57470W        W49394  42.221  33.711  53.796
57471W        W49395  10.277  41.219  51.519
57472W        W49396  21.761   0.753  50.609
57473W        W49397   1.768  35.721  52.427
57474W        W49398  43.226  30.247  52.435
57475W        W49399   9.752   5.764  52.405
57476W        W49400   0.298  48.213  53.789
57477W        W49401  39.191   8.272  53.338
57478W        W49402   1.255  12.260  51.975
57479W        W49403  15.248   7.282  52.893
57480W        W49404  44.193  22.762  52.418
57481W        W49405  23.217  24.214  50.150
57482W        W49406  22.740  14.263  50.128
57483W        W49407  40.200  30.741  51.981
57484W        W49408  41.215  44.211  51.051
57485W        W49409  12.242  38.232  52.417
57486W        W49410   9.236  31.722  51.069
57487W        W49411   2.287  38.700  51.979
57488W        W49412   0.796  22.753  49.669
57489W        W49413  19.247  10.755  50.621
57490W        W49414  38.214  41.685  50.160
57491W        W49415  24.750  31.739  51.527
57492W        W49416  16.239   5.275  51.965
57493W        W49417  11.236   2.291  52.444
57494W        W49418  30.241  44.214  51.054
57495W        W49419  40.715  22.255  52.404
57496W        W49420  28.233  14.270  53.359
57497W        W49421   9.756   6.287  52.412
57498W        W49422  44.182  34.206  49.673
57499W        W49423  12.261  32.719  51.985
57500W        W49424   8.284  20.233  52.442
57501W        W49425  43.721   3.767  50.150
57502W        W49426  45.680   1.271  53.334
57503W        W49427  10.759  14.735  51.077
57504W        W49428  46.210  26.747  50.597
57505W        W49429  21.757  37.191  51.976
57506W        W49430  22.261   6.259  50.133
57507W        W49431  36.203   0.253  53.788
57508W        W49432  45.200  30.734  50.126
57509W        W49433  36.209   1.752  51.068
57510W        W49434   9.766   8.784  53.815
57511W        W49435  13.746  42.191  50.131
57512W        W49436  27.242  26.213  51.970
57513W        W49437  38.711  29.748  52.409
57514W        W49438  46.183   3.774  50.127
57515W        W49439  14.728  17.237  51.535
57516W        W49440   3.781  30.245  53.337
57517W        W49441  12.771  24.242  51.038
57518W        W49442  32.242  38.198  49.667
57519W        W49443  25.740   1.748  50.595
57520W        W49444  14.230  13.737  52.864
57521W        W49445  27.749   3.279  49.709
57522W        W49446  35.736   6.286  51.071
57523W        W49447   4.274  46.700  51.971
57524W        W49448  18.745   2.771  53.333
57525W        W49449   3.249  35.235  52.408
57526W        W49450   4.789  18.220  51.043
57527W        W49451  19.732  21.218  53.352
57528W        W49452  35.212  24.232  51.983
57529W        W49453   9.259  15.241  53.795
57530W        W49454  19.221   3.252  50.580
57531W        W49455  39.715   9.734  53.804
57532W        W49456  37.714  18.750  53.776
57533W        W49457   2.266   6.243  50.616
57534W        W49458  35.711  16.261  53.358
57535W        W49459  33.230  13.756  50.593
57536W        W49460  18.747  20.759  50.129
57537W        W49461  18.262  46.205  50.122
57538W        W49462  41.698   4.756  52.433
57539W        W49463  42.210  46.216  51.949
57540W        W49464  39.186  16.225  51.047
57541W        W49465   3.287   1.258  53.780
57542W        W49466  32.236  28.705  50.596
57543W        W49467  41.708  23.725  50.149
57544W        W49468  23.737  16.227  51.955
57545W        W49469  23.727  20.726  53.817
57546W        W49470  42.702   1.289  50.614
57547W        W49471  16.225  25.253  50.588
57548W        W49472  41.231  17.230  51.075
57549W        W49473  14.240  25.715  51.048
57550W        W49474  16.727  30.227  51.048
57551W        W49475  24.726  15.736  50.616
57552W        W49476  36.202  25.256  49.677
57553W        W49477   6.260   5.776  50.121
57554W        W49478  29.244  45.708  50.608
57555W        W49479   3.774  46.682  52.882
57556W        W49480  16.742  16.250  51.966
57557W        W49481   5.258  12.743  52.421
57558W        W49482  25.714   6.282  49.683
57559W        W49483  14.729  36.725  51.042
57560W        W49484  47.696  31.734  49.676
57561W        W49485  42.708   5.279  49.693
57562W        W49486  29.204  32.222  51.527
57563W        W49487  18.234  36.707  50.614
57564W        W49488  25.212   0.299  51.509
57565W        W49489  40.219  44.714  52.425
57566W        W49490  36.197   5.252  53.339
57567W        W49491  19.754  48.178  53.317
57568W        W49492  34.230  28.221  52.888
57569W        W49493  27.212  18.245  52.882
57570W        W49494  44.692  40.207  50.147
57571W        W49495   8.748  32.202  52.436
57572W        W49496   1.296  37.231  49.700
57573W        W49497  22.218  23.717  51.982
57574W        W49498  43.688   6.758  52.865
57575W        W49499  33.718   3.781  49.686
57576W        W49500  22.723   7.757  49.705
57577W        W49501   1.783   0.780  52.430
57578W        W49502   1.759  41.228  52.406
57579W        W49503  29.726  27.748  51.534
57580W        W49504  11.755  36.202  53.348
57581W        W49505  22.255   1.759  52.870
57582W        W49506  45.225  31.216  53.345
57583W        W49507  25.757  47.690  51.951
57584W        W49508   0.782   4.256  51.956
57585W        W49509  43.220  42.711  52.404
57586W        W49510  22.755  38.722  53.811
57587W        W49511   4.775  30.200  53.338
57588W        W49512   7.288   9.275  49.674
57589W        W49513  36.202  15.751  51.991
57590W        W49514   8.269  43.188  53.817
57591W        W49515  48.199  38.734  52.880
57592W        W49516  37.205  17.755  51.073
57593W        W49517  28.736  44.196  50.578
57594W        W49518   4.768  40.722  51.495
57595W        W49519  16.260  20.228  52.884
57596W        W49520  37.225  48.210  50.129
57597W        W49521   0.774  46.183  51.034
57598W        W49522  45.675   8.738  53.361
57599W        W49523  31.224  12.234  52.415
57600W        W49524  17.234  47.194  49.687
57601W        W49525  15.227  22.720  50.151
57602W        W49526  37.720  28.752  49.701
57603W        W49527  26.214  10.254  51.503
57604W        W49528  43.704  18.240  52.864
57605W        W49529   4.763  41.729  53.773
57606W        W49530  29.720  23.219  51.532
57607W        W49531   6.244   4.780  52.894
57608W        W49532   3.776  17.264  50.134
57609W        W49533   6.757   3.762  51.044
57610W        W49534  44.691  13.761  49.710
57611W        W49535  21.761  19.264  51.496
57612W        W49536  21.238  25.713  52.437
57613W        W49537  40.705  32.215  51.038
57614W        W49538  35.699  14.249  49.668
57615W        W49539  19.748  18.227  50.610
57616W        W49540  21.724  43.682  51.079
57617W        W49541  18.259  13.768  52.447
57618W        W49542  34.709   6.252  51.496
57619W        W49543   7.274   4.264  50.161
57620W        W49544  18.269   9.245  51.498
57621W        W49545   6.748  23.223  51.077
57622W        W49546  28.751  18.228  53.351
57623W        W49547   8.737  47.215  49.696
57624W        W49548  21.722  17.733  52.436
57625W        W49549  35.711  44.192  53.319
57626W        W49550  19.221   8.254  52.428
57627W        W49551  11.762  36.198  51.061
57628W        W49552  14.264  31.225  51.521
57629W        W49553   7.768  15.232  52.435
57630W        W49554   2.292  45.706  51.048
57631W        W49555  31.726  30.746  53.352
57632W        W49556   3.246  37.718  53.316
57633W        W49557  23.241  37.222  52.866
57634W        W49558  24.710  37.707  50.134
57635W        W49559  16.734   8.773  52.413
57636W        W49560  14.270  40.211  50.623
57637W        W49561   0.273  40.694  51.973
57638W        W49562  33.706  22.728  50.621
57639W        W49563  34.706  21.758  50.609
57640W        W49564  29.212  17.738  51.055
57641W        W49565  13.769  26.718  51.048
57642W        W49566  32.209  19.751  53.340
57643W        W49567  24.242  32.234  51.508
57644W        W49568  21.735   5.745  51.072
57645W        W49569  16.242  29.228  53.810
57646W        W49570  42.221  19.267  51.514
57647W        W49571  23.235  46.204  53.336
57648W        W49572  34.226  14.253  51.990
57649W        W49573  46.693  42.684  49.692
57650W        W49574  23.217  47.182  53.342
57651W        W49575   5.745  10.233  52.425
57652W        W49576  32.233  30.744  51.953
57653W        W49577   7.739  30.713  50.127
57654W        W49578   6.771  47.692  52.407
57655W        W49579  35.200  22.725  53.330
57656W        W49580  26.240  32.739  52.429
57657W        W49581  19.241  16.238  52.859
57658W        W49582   2.257   7.248  53.799
57659W        W49583   0.286   8.281  51.530
57660W        W49584  16.731  17.732  52.893
57661W        W49585  38.202   4.768  49.674
57662W        W49586  35.731  26.710  50.594
57663W        W49587  16.228  20.730  49.692
57664W        W49588  25.751  36.231  52.872
57665W        W49589   2.761   6.289  49.681
57666W        W49590  24.217  21.235  51.982
57667W        W49591  16.242  10.247  52.439
57668W        W49592  14.235  33.236  51.520
57669W        W49593  10.261  32.219  53.336
57670W        W49594   3.272  44.690  50.589
57671W        W49595   3.280  21.260  53.361
57672W        W49596  34.243  40.732  50.599
57673W        W49597   8.772  17.768  50.613
57674W        W49598  13.244  37.222  50.123
57675W        W49599   0.787  25.241  53.786
57676W        W49600  20.754  11.734  53.795
57677W        W49601  24.740   3.255  50.597
57678W        W49602  30.719  32.745  51.957
57679W        W49603  23.223  42.194  52.874
57680W        W49604  44.203  42.680  53.798
57681W        W49605  33.203  15.760  53.780
57682W        W49606  44.218  39.203  51.973
57683W        W49607   0.768  31.209  52.442
57684W        W49608  27.732  10.235  50.595
57685W        W49609  43.186  29.743  52.872
57686W        W49610  16.739  41.208  52.904
57687W        W49611  43.679  27.234  52.442
57688W        W49612  44.207  44.207  50.149
57689W        W49613  32.206  39.708  51.952
57690W        W49614  20.742  32.703  53.318
57691W        W49615  45.223  15.765  52.430
57692W        W49616  43.226  47.699  51.511
57693W        W49617  18.763  35.235  49.695
57694W        W49618  44.696   3.764  53.326
57695W        W49619  45.176  26.207  49.677
57696W        W49620  36.719  32.224  52.895
57697W        W49621  34.218  41.187  51.960
57698W        W49622  44.686  28.220  52.437
57699W        W49623   2.262  48.211  50.123
57700W        W49624  45.689  10.251  52.443
57701W        W49625  15.754   3.768  50.617
57702W        W49626   8.739  19.752  51.064
57703W        W49627  33.220   9.255  52.882
57704W        W49628  44.677  21.250  50.588
57705W        W49629   9.780  45.694  51.990
57706W        W49630  18.234  41.701  51.051
57707W        W49631  31.723  34.202  50.148
57708W        W49632  11.771  12.741  52.890
57709W        W49633  27.220  39.212  53.792
57710W        W49634  22.247  43.699  51.964
57711W        W49635  16.242  22.215  53.339
57712W        W49636  13.773   9.758  53.361
57713W        W49637  24.734   6.240  49.700
57714W        W49638  10.248  24.715  51.946
57715W        W49639  15.746  21.725  51.528
57716W        W49640  19.233   0.751  52.437
57717W        W49641  36.203  25.224  52.437
57718W        W49642  25.232  13.768  51.984
57719W        W49643  17.260  19.218  53.792
57720W        W49644  34.698  17.262  49.707
57721W        W49645  43.203  26.213  53.342
57722W        W49646  31.204  22.758  49.670
57723W        W49647  29.710  15.254  51.515
57724W        W49648   2.788  31.224  51.041
57725W        W49649  27.705   3.294  51.964
57726W        W49650  45.197   7.249  52.414
57727W        W49651   8.239  29.211  50.126
57728W        W49652  35.694   5.253  50.607
57729W        W49653  30.249  44.700  51.969
57730W        W49654   7.280  25.251  51.046
57731W        W49655  41.230   8.276  50.127
57732W        W49656  44.197  47.720  50.124
57733W        W49657  26.247  29.247  52.432
57734W        W49658   9.264  42.695  50.130
57735W        W49659  26.238  20.739  49.692
57736W        W49660  43.187  26.255  53.803
57737W        W49661  28.249  21.218  53.789
57738W        W49662  26.724  24.728  49.704
57739W        W49663  44.712  31.729  50.621
57740W        W49664  30.242  39.220  50.583
57741W        W49665  41.720  48.175  51.494
57742W        W49666  24.742  32.741  52.418
57743W        W49667  38.687  41.215  50.148
57744W        W49668  24.740   1.749  49.692
57745W        W49669   1.777   3.770  53.335
57746W        W49670  15.741  17.738  50.616
57747W        W49671  42.706  35.210  52.434
57748W        W49672  46.694   8.740  51.954
57749W        W49673  26.232  31.738  50.148
57750W        W49674   0.770  14.728  53.785
57751W        W49675  34.242   6.759  50.609
57752W        W49676  10.242  40.713  51.066
57753W        W49677  36.732  47.198  53.348
57754W        W49678  15.248  45.714  51.523
57755W        W49679   5.782  40.231  51.947
57756W        W49680   5.774  22.237  51.075
57757W        W49681  43.714  22.258  49.708
57758W        W49682  19.253  19.724  53.359
57759W        W49683  44.678  12.758  50.138
57760W        W49684  19.767  30.708  51.513
57761W        W49685  11.762  15.751  52.866
57762W        W49686  11.779  30.244  51.955
57763W        W49687  35.216   2.276  53.354
57764W        W49688  19.733   0.787  51.048
57765W        W49689  38.202  39.728  50.596
57766W        W49690  41.200   4.771  53.346
57767W        W49691  22.227  13.234  52.422
57768W        W49692  18.224  26.719  51.043
57769W        W49693  44.711  47.691  50.127
57770W        W49694  47.717  28.212  53.816
57771W        W49695  15.746  37.194  49.679
57772W        W49696  35.726  41.719  52.413
57773W        W49697   5.256   7.760  51.490
57774W        W49698  23.223  29.705  50.580
57775W        W49699  16.767  46.207  50.596
57776W        W49700  23.732   5.284  51.496
57777W        W49701  34.239   0.772  49.707
57778W        W49702  11.750  23.260  50.127
57779W        W49703  23.728  13.767  51.983
57780W        W49704  37.706  20.720  53.787
57781W        W49705  42.697  48.190  51.035
57782W        W49706  44.195  23.231  51.533
57783W        W49707  40.716  29.233  52.863
57784W        W49708  17.738  42.685  52.442
57785W        W49709  14.234  42.716  53.801
57786W        W49710  15.244   3.792  49.673
57787W        W49711  30.239  21.244  53.325
57788W        W49712   3.284   9.747  53.773
57789W        W49713  46.721  45.707  50.163
57790W        W49714   2.295  10.751  50.148
57791W        W49715  17.225  47.695  53.322
57792W        W49716  45.695   4.771  51.987
57793W        W49717  33.208  30.705  53.344
57794W        W49718  31.200  41.205  49.698
57795W        W49719  13.729  33.238  51.047
57796W        W49720  11.745  25.216  49.677
57797W        W49721   7.765  36.737  53.324
57798W        W49722  36.718  16.255  50.616
57799W        W49723  36.709  13.252  51.077
57800W        W49724   9.756  28.240  52.863
57801W        W49725  34.742  39.201  51.534
57802W        W49726  15.730  27.746  50.132
57803W        W49727  37.237  26.713  52.421
57804W        W49728  35.715   1.286  53.323
57805W        W49729  10.248  41.685  52.870
57806W        W49730   9.757  24.751  51.036
57807W        W49731   9.271  21.757  50.153
57808W        W49732   5.745  41.703  51.053
57809W        W49733  35.703  23.735  50.165
57810W        W49734  41.700   9.780  50.138
57811W        W49735  25.227  13.739  51.504
57812W        W49736  45.185  12.272  53.772
57813W        W49737  39.699  11.266  50.128
57814W        W49738  31.232  25.257  52.411
57815W        W49739   2.249  14.764  53.356
57816W        W49740  27.722  27.744  50.161
57817W        W49741  33.227  39.711  50.151
57818W        W49742  17.271  14.260  51.066
57819W        W49743  10.776  47.711  52.887
57820W        W49744  25.753  36.715  53.335
57821W        W49745  29.205   1.285  50.160
57822W        W49746  47.692  37.228  51.071
57823W        W49747   8.754  16.746  53.818
57824W        W49748  18.238  26.210  51.049
57825W        W49749  20.224  30.731  51.946
57826W        W49750  46.687  11.746  52.439
57827W        W49751  13.236  47.704  49.694
57828W        W49752  18.740  24.728  53.340
57829W        W49753  21.732  42.184  51.518
57830W        W49754  26.739  43.725  51.047
57831W        W49755  23.234  20.221  52.435
57832W        W49756  36.710  10.748  53.782
57833W        W49757  12.744  40.227  51.056
57834W        W49758   6.259   7.283  52.899
57835W        W49759   5.279  39.703  50.590
57836W        W49760   6.286  10.259  51.516
57837W        W49761  34.216  17.270  50.130
57838W        W49762  10.247   8.775  53.348
57839W        W49763  12.272  35.718  53.777
57840W        W49764  29.733  26.715  50.598
57841W        W49765  41.720  37.690  53.347
57842W        W49766  26.712  37.209  53.359
57843W        W49767  16.763  18.250  51.953
57844W        W49768  37.213  47.706  50.595
57845W        W49769   7.765  27.240  52.892
57846W        W49770  16.746   2.248  50.605
57847W        W49771  28.242  36.219  53.805
57848W        W49772  31.245   0.792  50.603
57849W        W49773   7.747  16.727  51.043
57850W        W49774  24.250  15.238  49.680
57851W        W49775   7.285  10.239  53.776
57852W        W49776  25.233  47.208  50.598
57853W        W49777  35.719  34.712  51.975
57854W        W49778  44.701  23.729  52.895
57855W        W49779  43.210  31.199  52.872
57856W        W49780  21.262   1.293  50.577
57857W        W49781  15.751  26.717  53.810
57858W        W49782   4.760   8.250  53.802
57859W        W49783  30.202  11.778  53.773
57860W        W49784  44.705  10.755  53.802
57861W        W49785  12.731  34.223  50.145
57862W        W49786  41.226  39.718  52.871
57863W        W49787  12.777  43.717  51.511
57864W        W49788  26.217  42.685  51.530
57865W        W49789  12.254  16.270  52.875
57866W        W49790  45.215  47.215  51.057
57867W        W49791  22.723   5.782  52.444
57868W        W49792  47.189  30.745  51.509
57869W        W49793   4.759  44.694  53.779
57870W        W49794  45.185  15.766  50.159
57871W        W49795  32.216   3.764  51.038
57872W        W49796  44.684  16.271  53.323
57873W        W49797  28.709  44.223  51.066
57874W        W49798  30.739  36.193  52.424
57875W        W49799  32.711  38.733  52.885
57876W        W49800   1.777  47.190  52.430
57877W        W49801  26.243  24.718  52.891
57878W        W49802  27.707  14.744  50.165
57879W        W49803  37.733  34.697  52.435
57880W        W49804  30.729   3.263  53.337
57881W        W49805  36.723  19.240  50.602
57882W        W49806  17.737  11.747  52.884
57883W        W49807  14.745  40.708  49.669
57884W        W49808   2.294  16.244  51.499
57885W        W49809   3.273  28.245  51.974
57886W        W49810  42.207  14.754  50.128
57887W        W49811  42.727  33.222  53.805
57888W        W49812  41.209  38.192  50.607
57889W        W49813  47.205  46.189  53.335
57890W        W49814  29.212  17.760  53.346
57891W        W49815  35.696  28.712  50.150
57892W        W49816  37.733  16.256  53.812
57893W        W49817  43.699  39.697  49.674
57894W        W49818  19.740  43.214  53.815
57895W        W49819  25.717  19.745  51.960
57896W        W49820  47.677   5.775  49.675
57897W        W49821  44.185   8.272  53.318
57898W        W49822  36.227   9.760  53.811
57899W        W49823   2.277  24.757  52.895
57900W        W49824  18.754  14.261  52.865
57901W        W49825  32.235   0.277  49.684
57902W        W49826  36.219  48.175  51.984
57903W        W49827   0.298  41.196  53.778
57904W        W49828  38.704  11.266  52.417
57905W        W49829   0.283   5.748  50.583
57906W        W49830  41.224  34.729  53.816
57907W        W49831   2.793  36.709  50.599
57908W        W49832  45.177   5.273  51.518
57909W        W49833  16.738  46.183  51.514
57910W        W49834  46.188  32.207  52.404
57911W        W49835  24.255  33.232  53.784
57912W        W49836  39.230   0.298  53.358
57913W        W49837   9.279  38.689  50.591
57914W        W49838  28.748  26.733  50.139
57915W        W49839   9.260  25.226  51.971
57916W        W49840  25.252  35.200  50.132
57917W        W49841  46.700  10.269  50.603
57918W        W49842  17.269  25.251  53.791
57919W        W49843  22.222  12.763  53.330
57920W        W49844  20.260   1.783  49.694
57921W        W49845  17.266  37.217  51.069
57922W        W49846  14.772  37.219  51.526
57923W        W49847  10.735  34.719  50.150
57924W        W49848  25.734  18.257  50.149
57925W        W49849   9.242   0.278  53.325
57926W        W49850  17.233  15.272  52.899
57927W        W49851  10.273  40.214  52.443
57928W        W49852  43.180  20.219  49.694
57929W        W49853  12.770  33.696  51.519
57930W        W49854  28.226  19.729  51.045
57931W        W49855  27.238  21.249  52.414
57932W        W49856   3.259  10.278  53.783
57933W        W49857  36.721  18.230  49.677
57934W        W49858  29.210  16.751  49.685
57935W        W49859  16.739  46.209  53.354
57936W        W49860   7.246  24.729  49.688
57937W        W49861  21.729  20.226  51.036
57938W        W49862  15.254  21.749  51.990
57939W        W49863  23.731  24.717  50.596
57940W        W49864  37.210   1.763  49.699
57941W        W49865  38.234  26.719  53.344
57942W        W49866  27.230  13.737  53.330
57943W        W49867  35.693   5.758  51.056
57944W        W49868   9.236  37.735  52.418
57945W        W49869  25.754  43.228  51.526
57946W        W49870  12.265  44.679  49.674
57947W        W49871  33.204  12.764  51.066
57948W        W49872  14.766  47.199  51.057
57949W        W49873  24.758  41.709  52.446
57950W        W49874  29.241   1.758  51.055
57951W        W49875   1.748  47.204  50.598
57952W        W49876   3.246  30.203  52.871
57953W        W49877  30.700  36.208  50.148
57954W        W49878  35.729   4.276  52.865
57955W        W49879  32.717   6.787  51.500
57956W        W49880   7.755  27.244  51.490
57957W        W49881   6.753  32.714  51.979
57958W        W49882  19.239  37.693  53.812
57959W        W49883  13.243  38.200  51.971
57960W        W49884  14.230   5.282  49.669
57961W        W49885  31.225  19.762  52.413
57962W        W49886  16.732   6.749  51.078
57963W        W49887  31.218  19.249  49.667
57964W        W49888  33.742  16.725  51.061
57965W        W49889  42.206  14.770  50.619
57966W        W49890  29.223  18.748  50.162
57967W        W49891  13.757  19.728  52.861
57968W        W49892   1.252  32.731  53.801
57969W        W49893   9.766   2.770  51.963
57970W        W49894  28.727  43.225  52.439
57971W        W49895   7.769   7.746  51.982
57972W        W49896   3.290  20.732  52.403
57973W        W49897   8.780   4.245  51.957
57974W        W49898  46.708  39.207  50.148
57975W        W49899  18.754   6.254  51.955
57976W        W49900  31.699  46.218  51.077
57977W        W49901  14.227  23.720  53.358
57978W        W49902  46.676  13.732  50.133
57979W        W49903  33.733  41.682  50.577
57980W        W49904   1.293  43.703  51.955
57981W        W49905  28.205  26.209  51.043
57982W        W49906   9.767  16.738  51.513
57983W        W49907  31.743  23.752  50.600
57984W        W49908  15.736  45.717  49.668
57985W        W49909  47.708  48.194  52.438
57986W        W49910  32.233  22.715  50.140
57987W        W49911  23.229  20.757  50.151
57988W        W49912  18.737   0.250  53.773
57989W        W49913   7.249   0.767  51.514
57990W        W49914  28.734  26.229  53.776
57991W        W49915  32.729  18.235  49.683
57992W        W49916  47.181  33.710  52.419
57993W        W49917  34.696  34.201  50.127
57994W        W49918  36.720   7.285  53.334
57995W        W49919  37.233   9.747  52.438
57996W        W49920  42.687   5.264  53.349
57997W        W49921   3.267  43.195  52.432
57998W        W49922   6.775  40.185  51.502
57999W        W49923  31.242  35.229  50.165
58000W        W49924   8.280  42.222  51.038
58001W        W49925  35.720   9.747  50.156
58002W        W49926   5.779  17.261  52.900
58003W        W49927  45.713  37.733  50.125
58004W        W49928  26.252  28.714  53.320
58005W        W49929  34.741  16.263  52.879
58006W        W49930  27.235  40.691  52.442
58007W        W49931  38.196  29.703  51.531
58008W        W49932   3.754   5.787  52.884
58009W        W49933  23.225  19.221  51.042
58010W        W49934  20.760  33.215  49.690
58011W        W49935  47.710  18.250  51.960
58012W        W49936   0.786  44.696  50.606
58013W        W49937   8.770  25.751  49.669
58014W        W49938  42.221  29.236  52.427
58015W        W49939   3.266  40.225  51.494
58016W        W49940  44.184  22.218  50.613
58017W        W49941   6.779   1.764  50.155
58018W        W49942  35.237  11.246  50.588
58019W        W49943  36.729   8.259  50.165
58020W        W49944  32.205  16.233  51.046
58021W        W49945  21.721  12.770  52.432
58022W        W49946  25.722  26.754  50.585
58023W        W49947  12.243  16.744  52.877
58024W        W49948   4.284  13.231  53.774
58025W        W49949  11.763  30.722  50.121
58026W        W49950  46.697  28.227  50.604
58027W        W49951  46.701  44.206  51.498
58028W        W49952   7.761  27.214  50.130
58029W        W49953  18.227  44.219  49.682
58030W        W49954  34.709  37.216  51.073
58031W        W49955  33.726  35.199  50.600
58032W        W49956  12.738  13.742  52.860
58033W        W49957   8.241  11.242  53.356
58034W        W49958  34.703  16.731  52.881
58035W        W49959   1.260  22.247  51.979
58036W        W49960   1.784  43.692  51.985
58037W        W49961  34.211  42.219  51.524
58038W        W49962  48.197  40.728  51.513
58039W        W49963  15.260  18.749  53.781
58040W        W49964   9.764   7.278  50.126
58041W        W49965  43.183  40.210  53.340
58042W        W49966  15.239  12.278  50.623
58043W        W49967  23.726  21.750  49.692
58044W        W49968  36.213  17.231  50.602
58045W        W49969   2.248  18.745  52.875
58046W        W49970  33.229  30.723  51.951
58047W        W49971  19.227  37.213  50.601
58048W        W49972  44.226  42.195  51.527
58049W        W49973  48.214  35.692  49.696
58050W        W49974  38.699  18.746  49.677
58051W        W49975  46.213  15.247  53.795
58052W        W49976   8.262  24.211  50.154
58053W        W49977  47.702  13.765  53.334
58054W        W49978  36.232  44.711  52.884
58055W        W49979  37.724   8.267  52.891
58056W        W49980  45.213   4.788  52.413
58057W        W49981  42.722  18.261  51.503
58058W        W49982  36.690  33.217  49.689
58059W        W49983  12.260  41.715  51.500
58060W        W49984  25.709   2.257  53.793
58061W        W49985  15.724  30.701  53.790
58062W        W49986  14.235  38.724  52.895
58063W        W49987  34.712  16.768  53.789
58064W        W49988  11.751   6.262  51.037
58065W        W49989   2.246  23.241  52.876
58066W        W49990  45.692  29.729  52.432
58067W        W49991  27.212  19.766  50.162
58068W        W49992   9.775  12.231  49.671
58069W        W49993  34.210   9.773  50.155
58070W        W49994  19.737  21.716  51.989
58071W        W49995  15.760  13.275  50.143
58072W        W49996  27.247  41.684  51.509
58073W        W49997  34.715  40.690  53.338
58074W        W49998  45.704  29.709  53.360
58075W        W49999  27.740  28.707  50.590
58076W        W50000  29.248  17.738  51.506
58077W        W50001  40.194  14.264  50.156
58078W        W50002   0.763  47.685  53.356
58079W        W50003  30.216  18.721  52.878
58080W        W50004  37.231   3.250  53.812
58081W        W50005  14.766  17.239  51.054
58082W        W50006   9.285   2.758  53.792
58083W        W50007   4.279  13.278  51.065
58084W        W50008  38.205  21.250  52.860
58085W        W50009  46.713  17.732  53.773
58086W        W50010  45.205  32.244  50.152
58087W        W50011   0.274  17.257  53.329
58088W        W50012  27.223   6.744  51.987
58089W        W50013  16.738  33.197  52.412
58090W        W50014  10.263  37.715  51.988
58091W        W50015  26.743   5.281  49.696
58092W        W50016  27.735  36.215  49.702
58093W        W50017  33.728  41.225  51.967
58094W        W50018  43.724  11.749  50.622
58095W        W50019   9.772  42.183  53.357
58096W        W50020  47.696  35.214  52.860
58097W        W50021  15.752   7.768  53.345
58098W        W50022  19.231  15.746  51.518
58099W        W50023   2.263  29.726  50.597
58100W        W50024   7.760  17.737  52.430
58101W        W50025  31.236  16.734  51.527
58102W        W50026   0.749  17.761  53.352
58103W        W50027  33.235  24.752  49.668
58104W        W50028  22.236  30.227  51.966
58105W        W50029  24.752  43.189  50.605
58106W        W50030  26.252  14.757  51.512
58107W        W50031  13.267  10.238  51.952
58108W        W50032   4.772   9.780  51.508
58109W        W50033   2.288  28.246  50.613
58110W        W50034  21.220  24.744  53.809
58111W        W50035  17.752   0.294  50.606
58112W        W50036  11.235  22.216  51.068
58113W        W50037  43.688  32.742  52.443
58114W        W50038  19.756   4.785  53.803
58115W        W50039  40.198  11.737  51.038
58116W        W50040   8.756  33.714  52.434
58117W        W50041  36.221  40.228  49.685
58118W        W50042  11.255  41.682  52.876
58119W        W50043  47.706  21.728  52.866
58120W        W50044  39.198   3.759  51.948
58121W        W50045  21.740  24.232  53.775
58122W        W50046  36.726  33.708  51.990
58123W        W50047  33.709  24.723  50.609
58124W        W50048  41.692   1.753  53.316
58125W        W50049  16.751  41.196  50.126
58126W        W50050  42.685  23.723  52.898
58127W        W50051  22.718  25.748  51.492
58128W        W50052  29.739  31.735  51.060
58129W        W50053  38.201  15.242  50.150
58130W        W50054  27.237  36.220  51.061
58131W        W50055  46.190  42.206  49.675
58132W        W50056   4.777  41.208  53.348
58133W        W50057   4.790  24.731  51.060
58134W        W50058  21.743  20.232  51.520
58135W        W50059  40.703  34.707  49.685
58136W        W50060  33.740  25.226  51.982
58137W        W50061  31.715  40.728  53.810
58138W        W50062  35.196  23.739  50.165
58139W        W50063  22.225  14.251  51.988
58140W        W50064  20.758  34.738  49.669
58141W        W50065  33.733  19.726  50.591
58142W        W50066   8.747  20.234  51.054
58143W        W50067   9.736   1.759  50.594
58144W        W50068  24.751  43.219  53.813
58145W        W50069  30.241   1.751  51.963
58146W        W50070   3.790  22.745  51.976
58147W        W50071  45.179  29.724  51.492
58148W        W50072  23.727  12.254  52.426
58149W        W50073  17.251  27.255  51.070
58150W        W50074  13.242   2.759  51.075
58151W        W50075   9.754  35.227  49.668
58152W        W50076   5.781   2.793  52.442
58153W        W50077  10.268  16.250  51.042
58154W        W50078   9.248  26.727  51.051
58155W        W50079  13.275  32.717  51.968
58156W        W50080  45.683   5.781  53.327
58157W        W50081  37.207  38.722  52.865
58158W        W50082  42.191  22.230  50.621
58159W        W50083  28.714  41.194  52.417
58160W        W50084  15.241   7.239  50.146
58161W        W50085  48.192  30.246  50.165
58162W        W50086  34.235   5.272  51.056
58163W        W50087  30.708  11.749  52.883
58164W        W50088  36.716   0.280  51.047
58165W        W50089   2.747   4.766  53.346
58166W        W50090  15.763   9.776  51.058
58167W        W50091  24.716  45.720  52.423
58168W        W50092  48.183  39.188  51.053
58169W        W50093  32.243  29.224  50.614
58170W        W50094  37.231  32.723  50.612
58171W        W50095  30.203  46.198  53.792
58172W        W50096  11.268  35.234  50.616
58173W        W50097  24.733   7.282  51.076
58174W        W50098  40.720   4.755  51.057
58175W        W50099  38.697  33.696  49.692
58176W        W50100  29.240   7.272  52.444
58177W        W50101  31.724   0.267  50.593
58178W        W50102   5.750  42.683  52.404
58179W        W50103  10.268  28.743  52.895
58180W        W50104   0.791  40.197  52.406
58181W        W50105  45.698   8.780  52.411
58182W        W50106  44.718  29.203  52.864
58183W        W50107   3.271  37.726  51.503
58184W        W50108  22.224   6.279  51.063
58185W        W50109  39.193  29.748  49.704
58186W        W50110  20.720  14.741  49.677
58187W        W50111  38.729  42.191  53.795
58188W        W50112  43.689  40.698  51.965
58189W        W50113  38.189  15.774  51.969
58190W        W50114  29.749  36.690  50.598
58191W        W50115  34.203   3.791  49.668
58192W        W50116   7.252  11.260  53.809
58193W        W50117  24.246   1.256  51.034
58194W        W50118  26.224   7.257  51.075
58195W        W50119  11.761   6.766  51.967
58196W        W50120  10.774   2.271  51.077
58197W        W50121   9.783  17.256  52.901
58198W        W50122  19.260  34.728  50.163
58199W        W50123  40.716  31.219  50.577
58200W        W50124  23.221  26.710  53.799
58201W        W50125  35.700  21.729  51.962
58202W        W50126   0.777  35.230  49.700
58203W        W50127  39.727  25.253  53.806
58204W        W50128  22.720  13.243  52.876
58205W        W50129  16.227  19.227  53.812
58206W        W50130  38.729  22.257  50.138
58207W        W50131  41.707  34.241  50.589
58208W        W50132  20.762   8.759  51.535
58209W        W50133  20.733   2.751  50.581
58210W        W50134   6.753  11.740  51.042
58211W        W50135   0.282   9.264  53.781
58212W        W50136  29.704  11.241  50.621
58213W        W50137  39.201  25.238  51.521
58214W        W50138  16.755  19.730  51.989
58215W        W50139  48.206  12.771  53.326
58216W        W50140  32.721  13.261  52.404
58217W        W50141  47.216  25.724  50.601
58218W        W50142  41.700  35.201  53.325
58219W        W50143  36.210  25.719  50.129
58220W        W50144  44.187  30.703  53.794
58221W        W50145  11.758  22.719  53.350
58222W        W50146  34.238  19.262  52.443
58223W        W50147  41.715  30.215  49.683
58224W        W50148  13.772   5.280  51.531
58225W        W50149  24.741  42.727  51.056
58226W        W50150  26.237  30.208  49.676
58227W        W50151  33.741  47.715  50.161
58228W        W50152   8.271  18.738  49.670
58229W        W50153  44.710  29.727  53.789
58230W        W50154  33.707  47.675  50.592
58231W        W50155  19.757  37.201  52.891
58232W        W50156  27.234  35.212  52.865
58233W        W50157   8.269   3.259  53.348
58234W        W50158  24.717  43.685  53.353
58235W        W50159  42.224   9.763  51.968
58236W        W50160   7.260  32.224  51.067
58237W        W50161  24.217  24.249  53.780
58238W        W50162  13.230   7.245  49.699
58239W        W50163  32.741   1.772  50.129
58240W        W50164  37.737   6.750  53.785
58241W        W50165  36.238  29.220  51.520
58242W        W50166  47.678   8.277  50.147
58243W        W50167  45.189   6.284  51.077
58244W        W50168  38.730  28.726  53.335
58245W        W50169  22.234   8.784  50.608
58246W        W50170   0.777  18.749  53.337
58247W        W50171  39.234   4.776  51.035
58248W        W50172  17.238  13.271  53.342
58249W        W50173  45.224  34.220  53.779
58250W        W50174   7.263  15.743  52.419
58251W        W50175  17.750   5.278  51.069
58252W        W50176  25.729   5.285  53.360
58253W        W50177   5.761  12.230  53.796
58254W        W50178  36.717  31.738  50.589
58255W        W50179  43.224  35.736  52.877
58256W        W50180  20.751  41.723  51.509
58257W        W50181  44.713   8.249  49.675
58258W        W50182  41.196  21.238  52.426
58259W        W50183  41.719  38.721  51.051
58260W        W50184  21.237  47.187  51.953
58261W        W50185  44.703  31.713  51.525
58262W        W50186  45.696  26.246  50.619
58263W        W50187  17.746  17.265  51.503
58264W        W50188  38.726  41.705  49.688
58265W        W50189  15.227  39.235  51.037
58266W        W50190  16.730  45.720  51.506
58267W        W50191   4.780  20.239  50.589
58268W        W50192  13.775  22.238  51.975
58269W        W50193  17.268  35.699  49.680
58270W        W50194  33.728  14.272  51.053
58271W        W50195  14.248   1.259  50.620
58272W        W50196   6.781   0.271  49.709
58273W        W50197  39.200  39.715  51.039
58274W        W50198   9.263   2.779  52.428
58275W        W50199  34.708  33.727  52.414
58276W        W50200  15.759   4.765  51.979
58277W        W50201  32.209  17.250  50.604
58278W        W50202  33.726  31.722  50.125
58279W        W50203  46.183  12.274  49.683
58280W        W50204  47.205  44.707  52.442
58281W        W50205  35.202  40.722  49.679
58282W        W50206  24.740  40.709  49.704
58283W        W50207  45.194  23.731  52.889
58284W        W50208  36.220   5.246  52.433
58285W        W50209  17.241  14.768  51.491
58286W        W50210   2.268  29.721  52.436
58287W        W50211   1.767  11.271  49.691
58288W        W50212  24.241   4.285  50.617
58289W        W50213  24.213   5.785  50.596
58290W        W50214  22.242  36.203  50.596
58291W        W50215  40.223  41.223  53.796
58292W        W50216  12.262   6.773  53.358
58293W        W50217  14.260  15.734  51.987
58294W        W50218  36.703  24.756  51.493
58295W        W50219   6.276  11.255  53.775
58296W        W50220  25.731  18.259  53.804
58297W        W50221  37.194  27.750  50.583
58298W        W50222   2.773   3.274  51.067
58299W        W50223  25.720  25.724  51.961
58300W        W50224  35.208  39.209  51.078
58301W        W50225  21.224   7.761  53.791
58302W        W50226  45.182  23.239  50.588
58303W        W50227  33.217  15.733  53.323
58304W        W50228  11.256  18.768  52.435
58305W        W50229  24.229  25.722  49.679
58306W        W50230  15.754  46.697  53.777
58307W        W50231  40.687  19.726  51.055
58308W        W50232  38.687  19.232  51.534
58309W        W50233  39.686  36.708  49.684
58310W        W50234  11.759  23.214  51.064
58311W        W50235   2.291  29.740  53.360
58312W        W50236  11.244  29.221  52.897
58313W        W50237  23.216  31.220  51.509
58314W        W50238   3.762   1.264  52.413
58315W        W50239   4.282   1.281  53.774
58316W        W50240   3.281   5.767  53.798
58317W        W50241  19.246  32.233  51.070
58318W        W50242  45.201  44.707  51.966
58319W        W50243  22.251   7.251  52.880
58320W        W50244  28.712  29.203  51.071
58321W        W50245  13.761  14.738  53.794
58322W        W50246  37.197  48.174  50.603
58323W        W50247  31.713  20.745  51.049
58324W        W50248  38.194  37.222  51.056
58325W        W50249  25.213  39.212  51.522
58326W        W50250  19.227   8.760  50.602
58327W        W50251  29.245  34.202  50.609
58328W        W50252  28.204  40.701  51.063
58329W        W50253  46.192  16.746  52.875
58330W        W50254  23.739  44.212  50.156
58331W        W50255   9.244  29.730  52.859
58332W        W50256  38.208   7.772  51.983
58333W        W50257  17.762  19.725  52.879
58334W        W50258  26.239  41.719  50.583
58335W        W50259   1.779  45.711  52.866
58336W        W50260   7.777   1.763  50.134
58337W        W50261  34.223  24.259  51.514
58338W        W50262  38.728  29.216  51.064
58339W        W50263  18.227  26.750  50.131
58340W        W50264  22.230  46.197  51.524
58341W        W50265  43.695  38.204  53.811
58342W        W50266   1.764  21.256  53.803
58343W        W50267  25.712  35.706  51.068
58344W        W50268  47.185  30.233  49.680
58345W        W50269  40.722   3.264  51.491
58346W        W50270  45.684  37.200  51.974
58347W        W50271  20.249  25.746  52.886
58348W        W50272  40.692  20.250  50.151
58349W        W50273  36.709   0.273  49.690
58350W        W50274  17.248  21.245  51.524
58351W        W50275   1.261  37.200  51.972
58352W        W50276  26.213  31.710  52.411
58353W        W50277  41.721  41.690  50.146
58354W        W50278  12.268  39.232  53.784
58355W        W50279  13.761  10.749  52.904
58356W        W50280  26.706   7.239  52.885
58357W        W50281  33.203  16.733  50.165
58358W        W50282  10.269  38.190  52.903
58359W        W50283  23.230  37.237  51.964
58360W        W50284  33.229  26.747  51.071
58361W        W50285  47.174  20.220  51.985
58362W        W50286   0.260  40.220  49.664
58363W        W50287  16.751  27.219  53.798
58364W        W50288  18.722   2.750  52.864
58365W        W50289  46.683  17.765  50.610
58366W        W50290   5.252  26.256  51.499
58367W        W50291  29.724  39.724  52.889
58368W        W50292  12.247  47.721  53.324
58369W        W50293  35.196  27.749  53.353
58370W        W50294   3.766  29.719  50.155
58371W        W50295  24.251  31.736  49.687
58372W        W50296  28.739   9.256  53.320
58373W        W50297   2.752  32.243  49.701
58374W        W50298  44.690  28.744  50.126
58375W        W50299  36.227  38.207  51.048
58376W        W50300   8.271  19.765  50.134
58377W        W50301  15.764  26.241  49.707
58378W        W50302  36.235  46.216  52.904
58379W        W50303  31.214   4.275  51.048
58380W        W50304  20.761  16.727  52.861
58381W        W50305  26.717   4.792  52.413
58382W        W50306  23.735  28.720  53.351
58383W        W50307  33.721  23.726  49.675
58384W        W50308  28.748  36.232  49.693
58385W        W50309  38.727  41.201  51.527
58386W        W50310  27.253  33.719  52.420
58387W        W50311   8.276  16.745  53.778
58388W        W50312  43.693  24.226  50.161
58389W        W50313  11.258  12.753  49.710
58390W        W50314   1.252  35.715  51.950
58391W        W50315  37.192  31.238  53.358
58392W        W50316  28.734  14.755  52.408
58393W        W50317  25.753  38.726  51.968
58394W        W50318   1.748   8.282  51.067
58395W        W50319  30.237  40.731  52.899
58396W        W50320  10.267  41.213  49.693
58397W        W50321  26.226  34.233  52.867
58398W        W50322  28.730  22.257  51.534
58399W        W50323   5.790  42.719  51.034
58400W        W50324  23.713   0.772  49.679
58401W        W50325  33.738  34.228  51.507
58402W        W50326  48.207   8.269  53.325
58403W        W50327  21.228  43.194  49.669
58404W        W50328  11.276   6.774  49.676
58405W        W50329   1.276  36.206  51.061
58406W        W50330  10.252  33.705  51.071
58407W        W50331   8.759  37.204  51.047
58408W        W50332   9.240  37.704  53.344
58409W        W50333  41.193   2.768  53.775
58410W        W50334  14.234  26.239  53.322
58411W        W50335   7.776  26.222  52.415
58412W        W50336  37.227  21.749  49.665
58413W        W50337  16.725  36.690  49.694
58414W        W50338  44.216  33.705  52.404
58415W        W50339  29.239   2.790  51.040
58416W        W50340  24.230  19.266  51.963
58417W        W50341  26.732  48.196  52.875
58418W        W50342  12.732  22.742  51.075
58419W        W50343  27.720  16.748  53.815
58420W        W50344  21.223  40.211  52.429
58421W        W50345   7.251  20.717  50.605
58422W        W50346  34.728  27.232  51.984
58423W        W50347  11.733  21.235  53.333
58424W        W50348  30.717   2.265  52.435
58425W        W50349  31.220  43.725  51.986
58426W        W50350  11.749   6.276  51.972
58427W        W50351   0.250   7.773  50.594
58428W        W50352  23.743  40.701  50.139
58429W        W50353  22.727   6.245  50.157
58430W        W50354   8.285  13.235  51.042
58431W        W50355  24.757   5.744  51.951
58432W        W50356  20.243   3.290  52.415
58433W        W50357  43.714  26.736  50.136
58434W        W50358  42.194  25.738  50.589
58435W        W50359   2.278  20.760  51.070
58436W        W50360  21.721   0.265  50.145
58437W        W50361  37.189  34.698  49.703
58438W        W50362   5.787  35.235  51.074
58439W        W50363  45.685   6.246  50.583
58440W        W50364   8.286   9.777  50.606
58441W        W50365  45.185  26.747  53.791
58442W        W50366   8.248  16.724  52.861
58443W        W50367  43.207  14.773  52.423
58444W        W50368  44.209   4.292  53.799
58445W        W50369  17.243  26.722  50.124
58446W        W50370  14.268  45.719  49.708
58447W        W50371  38.691  42.185  52.869
58448W        W50372  20.254   9.283  50.148
58449W        W50373   8.253  34.696  53.330
58450W        W50374   8.238   6.750  51.959
58451W        W50375  24.239   3.771  53.357
58452W        W50376  39.730  33.213  53.319
58453W        W50377   3.277  32.699  52.409
58454W        W50378  15.255  32.697  50.121
58455W        W50379   2.250  36.218  52.442
58456W        W50380  25.724  26.713  49.709
58457W        W50381  23.223  25.217  50.129
58458W        W50382  28.207  46.209  50.135
58459W        W50383   1.251   2.261  53.806
58460W        W50384  37.228  28.750  53.794
58461W        W50385  14.273   8.242  51.526
58462W        W50386  41.199  31.226  51.980
58463W        W50387   8.748  42.185  51.960
58464W        W50388  27.713  23.730  53.320
58465W        W50389  45.205   4.750  53.319
58466W        W50390  25.754  19.246  53.795
58467W        W50391   8.259  28.707  50.608
58468W        W50392  26.750  40.717  50.602
58469W        W50393  46.189  26.222  53.349
58470W        W50394  11.758   4.253  53.786
58471W        W50395   8.242  36.702  52.406
58472W        W50396  12.265  34.198  52.882
58473W        W50397   9.768  46.712  52.859
58474W        W50398  44.210  28.708  52.894
58475W        W50399  33.201  12.248  51.971
58476W        W50400  31.741  18.748  51.973
58477W        W50401  30.212  47.682  51.524
58478W        W50402  23.753  13.770  52.869
58479W        W50403  34.231  46.220  51.968
58480W        W50404  19.741  38.690  50.155
58481W        W50405   0.264  46.202  53.349
58482W        W50406  47.704  10.734  51.502
58483W        W50407  22.727  40.225  53.327
58484W        W50408  46.191  32.198  50.593
58485W        W50409  40.224  10.761  51.971
58486W        W50410   1.296  37.223  53.325
58487W        W50411  21.735   4.247  53.325
58488W        W50412   4.761   5.272  50.122
58489W        W50413  37.212  31.711  50.617
58490W        W50414   6.250   7.772  51.953
58491W        W50415   2.255  23.716  52.868
58492W        W50416  21.721   3.274  52.865
58493W        W50417  25.711   5.786  52.447
58494W        W50418   4.755  38.687  49.702
58495W        W50419   3.268  24.235  50.151
58496W        W50420  23.735  38.714  52.407
58497W        W50421   0.749   3.253  51.068
58498W        W50422  30.236  30.201  50.620
58499W        W50423  17.738  36.728  49.693
58500W        W50424  25.237  26.710  51.062
58501W        W50425  47.714  23.730  52.421
58502W        W50426  15.753  41.207  49.694
58503W        W50427  48.212  46.720  52.889
58504W        W50428  37.706  34.220  50.129
58505W        W50429  18.265  46.688  52.409
58506W        W50430  14.274  43.189  52.875
58507W        W50431  27.746  25.725  50.149
58508W        W50432  10.780  36.706  51.064
58509W        W50433  43.187  47.702  53.777
58510W        W50434  47.717   4.791  53.813
58511W        W50435  24.736  33.737  51.512
58512W        W50436  45.680  42.195  51.503
58513W        W50437  31.238  35.725  51.050
58514W        W50438  47.191   7.754  51.518
58515W        W50439  13.777  38.221  53.805
58516W        W50440  18.749  44.712  49.701
58517W        W50441  30.235  18.237  51.515
58518W        W50442  19.733  30.738  52.440
58519W        W50443   0.792  34.227  51.510
58520W        W50444  22.251  44.718  52.446
58521W        W50445  28.749  26.750  51.529
58522W        W50446  46.721  32.224  53.316
58523W        W50447   8.784  23.239  53.325
58524W        W50448   9.748  42.183  50.597
58525W        W50449  38.226   4.249  51.951
58526W        W50450  40.688  36.709  52.428
58527W        W50451   3.281  27.712  51.502
58528W        W50452  30.711  14.764  52.416
58529W        W50453   7.783  23.746  51.500
58530W        W50454  40.687  10.235  52.410
58531W        W50455  32.701  33.205  52.864
58532W        W50456  13.277  21.245  52.432
58533W        W50457  21.225  47.216  51.074
58534W        W50458  26.242  17.261  50.591
58535W        W50459   2.777  24.759  53.349
58536W        W50460  31.699   0.774  51.059
58537W        W50461   5.281  39.196  51.962
58538W        W50462  19.225  15.757  51.076
58539W        W50463  40.198  21.246  52.886
58540W        W50464  26.710  18.229  52.429
58541W        W50465  26.724  23.751  49.697
58542W        W50466   2.255  37.704  53.799
58543W        W50467  17.734  39.729  52.432
58544W        W50468  11.262  23.760  50.130
58545W        W50469   4.755   5.758  53.801
58546W        W50470  10.761   9.243  51.954
58547W        W50471  20.221   0.753  51.958
58548W        W50472  32.210   2.748  52.415
58549W        W50473  41.230  14.743  51.523
58550W        W50474   7.259  45.721  53.319
58551W        W50475  12.740  38.724  53.359
58552W        W50476  18.265  19.748  53.328
58553W        W50477  24.224  31.202  50.165
58554W        W50478  14.740  30.720  53.779
58555W        W50479  24.754  32.708  52.890
58556W        W50480  29.216  30.742  53.817
58557W        W50481  19.233  27.238  49.696
58558W        W50482  29.710  28.228  51.947
58559W        W50483   8.776  26.712  53.798
58560W        W50484  24.243  22.743  51.502
58561W        W50485  45.707   0.271  53.778
58562W        W50486  40.206  35.213  53.333
58563W        W50487  25.228  18.226  51.062
58564W        W50488  38.236  32.229  50.619
58565W        W50489  21.244  30.239  53.322
58566W        W50490   6.762  36.738  51.981
58567W        W50491  29.729  29.214  52.447
58568W        W50492  35.695   6.773  49.684
58569W        W50493  29.744  22.215  49.700
58570W        W50494  27.741  45.194  49.676
58571W        W50495  20.242   5.790  53.817
58572W        W50496  39.214   3.248  52.888
58573W        W50497   4.288  22.245  51.497
58574W        W50498  47.708  20.729  52.436
58575W        W50499  11.278  18.733  52.890
58576W        W50500  34.730  36.192  52.404
58577W        W50501  41.204   7.280  53.360
58578W        W50502  15.247  37.704  49.681
58579W        W50503  34.220  38.231  51.956
58580W        W50504  11.259  42.697  50.598
58581W        W50505  25.713  23.754  49.696
58582W        W50506  30.735  16.258  50.143
58583W        W50507  43.706  27.714  50.610
58584W        W50508   2.276  43.700  51.948
58585W        W50509  24.214  30.740  49.680
58586W        W50510  48.220  16.252  53.785
58587W        W50511  10.733  16.761  51.068
58588W        W50512  14.259   0.784  50.591
58589W        W50513  29.226  35.213  53.349
58590W        W50514  20.722  29.718  50.163
58591W        W50515  13.735  11.754  50.603
58592W        W50516  16.734   7.287  50.592
58593W        W50517  38.725   3.272  51.505
58594W        W50518  18.255  44.697  50.146
58595W        W50519  36.696  33.213  51.535
58596W        W50520  14.245   8.237  50.582
58597W        W50521  40.191  21.217  51.980
58598W        W50522   4.767   7.247  51.492
58599W        W50523   1.254  23.741  50.132
58600W        W50524  32.205  32.203  51.957
58601W        W50525  46.693  31.240  51.991
58602W        W50526   1.777  47.703  51.499
58603W        W50527  28.209  45.691  50.595
58604W        W50528   0.793   6.782  53.332
58605W        W50529   5.282  32.244  51.493
58606W        W50530  10.238  46.714  51.530
58607W        W50531  34.734  11.759  53.800
58608W        W50532  32.226  35.693  52.894
58609W        W50533  12.236  30.708  53.356
58610W        W50534  14.750  35.693  53.317
58611W        W50535  15.758  29.243  52.863
58612W        W50536  38.235  28.238  53.796
58613W        W50537  16.769  34.709  53.788
58614W        W50538  32.244  45.714  51.061
58615W        W50539  13.269   3.770  50.135
58616W        W50540  21.231  19.724  52.896
58617W        W50541  38.716   4.260  51.494
58618W        W50542  45.200  17.722  50.141
58619W        W50543  19.254  12.242  49.702
58620W        W50544   4.293  42.696  49.678
58621W        W50545  23.730  12.759  52.426
58622W        W50546  34.711  43.716  52.435
58623W        W50547   3.768  21.764  52.882
58624W        W50548  16.243  41.725  52.904
58625W        W50549  36.716  25.725  53.338
58626W        W50550   7.773   2.258  52.405
58627W        W50551   2.786  30.203  52.897
58628W        W50552  41.704  13.231  49.679
58629W        W50553  36.720  44.701  51.950
58630W        W50554  44.181  31.726  50.137
58631W        W50555  25.749   8.762  52.882
58632W        W50556  37.191   5.262  51.044
58633W        W50557  12.251   1.295  53.803
58634W        W50558  43.202   8.244  51.079
58635W        W50559  39.709  41.729  51.529
58636W        W50560  41.218  11.756  52.415
58637W        W50561  33.725   4.743  52.428
58638W        W50562   6.785   0.282  53.805
58639W        W50563   6.264  27.715  53.777
58640W        W50564  29.203  29.704  51.947
58641W        W50565  16.224  34.232  50.145
58642W        W50566  19.728  40.690  53.792
58643W        W50567   4.291  23.727  51.055
58644W        W50568  29.741  39.194  50.163
58645W        W50569   7.753  26.244  49.682
58646W        W50570  14.251  18.260  51.052
58647W        W50571  18.729  38.222  52.414
58648W        W50572   3.267  20.756  51.988
58649W        W50573  35.225   9.774  52.903
58650W        W50574  13.733  33.206  49.701
58651W        W50575   0.271  15.232  52.416
58652W        W50576  45.215  18.225  50.160
58653W        W50577  21.724  19.262  51.071
58654W        W50578  35.198  37.701  50.590
58655W        W50579  19.244  46.212  49.681
58656W        W50580  21.232  44.715  51.989
58657W        W50581  20.239  10.279  49.709
58658W        W50582   8.741   0.767  52.879
58659W        W50583  26.715  16.236  52.404
58660W        W50584  30.707   8.762  52.427
58661W        W50585  17.746   1.263  52.440
58662W        W50586  23.242  38.695  50.133
58663W        W50587  28.238  22.713  50.596
58664W        W50588   0.785  17.729  53.793
58665W        W50589  16.231  25.242  51.515
58666W        W50590  30.724  14.271  53.333
58667W        W50591  26.730  25.712  52.864
58668W        W50592  17.757  44.206  51.967
58669W        W50593  44.679   4.779  51.039
58670W        W50594  36.707  31.230  53.352
58671W        W50595  20.732  20.256  49.674
58672W        W50596  18.246  32.744  53.343
58673W        W50597  15.244  17.759  53.342
58674W        W50598  40.207  29.205  52.414
58675W        W50599  33.720   3.248  52.407
58676W        W50600  18.248  47.698  52.862
58677W        W50601   6.756  46.720  50.579
58678W        W50602   3.246  28.251  53.332
58679W        W50603  34.719  36.720  50.601
58680W        W50604  21.725  13.777  49.708
58681W        W50605   7.268   6.281  50.609
58682W        W50606  47.201   3.289  52.888
58683W        W50607  39.697  36.233  50.605
58684W        W50608   6.246  17.734  52.408
58685W        W50609  15.246  38.730  51.496
58686W        W50610   5.741  15.744  51.040
58687W        W50611  17.268  26.250  53.323
58688W        W50612  33.717   1.281  51.512
58689W        W50613  33.705  19.225  53.778
58690W        W50614  16.723   3.245  52.436
58691W        W50615  14.249  27.739  51.036
58692W        W50616   1.750  16.726  53.316
58693W        W50617  30.702  47.695  50.140
58694W        W50618  14.775   0.768  52.862
58695W        W50619   5.766  15.743  53.340
58696W        W50620  47.705  17.240  53.801
58697W        W50621  43.184  36.732  53.317
58698W        W50622  31.739  46.709  53.789
58699W        W50623   3.285  48.190  50.166
58700W        W50624  26.711  32.702  49.689
58701W        W50625   9.282   1.279  50.133
58702W        W50626  16.263  26.253  50.138
58703W        W50627  18.229   5.748  50.141
58704W        W50628   6.274   5.289  51.947
58705W        W50629  16.238   7.247  53.793
58706W        W50630  32.736   4.766  49.683
58707W        W50631  10.750  21.250  51.951
58708W        W50632  11.735   0.266  52.860
58709W        W50633  11.254  28.733  53.807
58710W        W50634  45.202  33.236  52.418
58711W        W50635   3.290  16.249  52.440
58712W        W50636  29.221  10.246  53.798
58713W        W50637  22.720  20.729  51.524
58714W        W50638  20.236  11.237  50.590
58715W        W50639  18.244   7.787  51.964
58716W        W50640  10.278   2.296  53.804
58717W        W50641   4.266  43.682  52.442
58718W        W50642  43.201  12.267  52.884
58719W        W50643   3.749  38.202  53.812
58720W        W50644  28.731  40.714  51.524
58721W        W50645  17.246   0.291  51.959
58722W        W50646  28.220  13.754  52.445
58723W        W50647  42.699   1.279  49.698
58724W        W50648  42.227  14.263  51.039
58725W        W50649  33.707   3.751  53.801
58726W        W50650  14.242  24.238  49.669
58727W        W50651  37.215   4.780  51.533
58728W        W50652  29.703  21.744  53.346
58729W        W50653  10.740  31.700  53.323
58730W        W50654  29.725   8.757  52.414
58731W        W50655  29.229  38.705  51.950
58732W        W50656  27.744  24.741  51.502
58733W        W50657  31.726  32.743  52.890
58734W        W50658  36.702  42.230  52.896
58735W        W50659  28.225   1.296  53.803
58736W        W50660  21.752  23.233  49.708
58737W        W50661   0.786  34.714  53.342
58738W        W50662   6.767  12.756  52.863
58739W        W50663  18.745  14.732  51.500
58740W        W50664  36.733  21.736  51.514
58741W        W50665   4.745   0.774  53.804
58742W        W50666  22.231  18.229  51.523
58743W        W50667  18.225  15.255  51.066
58744W        W50668  44.700   6.778  49.676
58745W        W50669  34.203  37.220  51.071
58746W        W50670  46.176  45.199  52.407
58747W        W50671  26.718   5.778  51.966
58748W        W50672  26.723  39.202  50.161
58749W        W50673  25.711   0.772  52.436
58750W        W50674   4.272  20.753  53.361
58751W        W50675   0.785  44.202  51.056
58752W        W50676  11.738  21.748  50.609
58753W        W50677  17.228  17.261  53.776
58754W        W50678  32.710   9.246  51.040
58755W        W50679  24.220  32.223  52.867
58756W        W50680  19.734   2.790  50.158
58757W        W50681  13.750  46.689  51.494
58758W        W50682  13.749  40.205  50.159
58759W        W50683  44.726  36.700  53.359
58760W        W50684  33.198  22.254  51.053
58761W        W50685  42.699  29.241  53.347
58762W        W50686  19.765  18.725  53.802
58763W        W50687  12.761  15.254  52.411
58764W        W50688  33.243  44.709  51.947
58765W        W50689  37.205   2.788  53.791
58766W        W50690   5.770  12.254  51.522
58767W        W50691  35.730  37.695  53.809
58768W        W50692  27.236  45.210  53.782
58769W        W50693  25.718   2.275  51.505
58770W        W50694  22.718   3.292  51.977
58771W        W50695  43.711  47.715  51.989
58772W        W50696  11.765  15.233  51.974
58773W        W50697  27.733  34.701  51.958
58774W        W50698  33.211  25.253  51.953
58775W        W50699  25.239  22.259  51.516
58776W        W50700  46.196  10.782  53.781
58777W        W50701  45.700  40.714  51.528
58778W        W50702   3.747   2.284  51.989
58779W        W50703  47.698  37.713  51.526
58780W        W50704  22.731  34.733  51.078
58781W        W50705  30.729  16.253  52.445
58782W        W50706  43.683  40.724  50.604
58783W        W50707  31.737  39.688  52.427
58784W        W50708  48.193  40.707  51.960
58785W        W50709   8.274   2.794  53.331
58786W        W50710   2.267  39.216  49.697
58787W        W50711  26.239   1.251  51.976
58788W        W50712  14.763   5.780  52.876
58789W        W50713  10.768  23.736  51.038
58790W        W50714   7.747  31.706  51.044
58791W        W50715  34.224  10.767  50.144
58792W        W50716  21.235  37.709  52.871
58793W        W50717   2.789  15.770  51.989
58794W        W50718  26.244  28.247  53.329
58795W        W50719  17.756  40.707  52.417
58796W        W50720  36.203  20.755  52.434
58797W        W50721  21.238  24.250  52.883
58798W        W50722  21.245  16.762  51.987
58799W        W50723  17.763  28.719  51.065
58800W        W50724  31.213  23.740  51.978
58801W        W50725  26.713  17.243  52.448
58802W        W50726   8.282  46.202  53.802
58803W        W50727  33.229   1.792  50.581
58804W        W50728  38.736  40.194  51.037
58805W        W50729  34.221  28.751  51.987
58806W        W50730  22.749  28.207  53.336
58807W        W50731  23.221  29.231  49.707
58808W        W50732  31.217   7.287  53.808
58809W        W50733   7.742  42.210  52.873
58810W        W50734  47.674  36.693  53.788
58811W        W50735  44.688  21.742  51.062
58812W        W50736  18.263  37.233  51.497
58813W        W50737  25.242   7.263  51.986
58814W        W50738  32.214  36.699  50.610
58815W        W50739  36.696   0.763  50.148
58816W        W50740  20.745  37.698  51.495
58817W        W50741  41.196  15.774  52.418
58818W        W50742  15.235  21.721  51.064
58819W        W50743  14.763  27.234  53.775
58820W        W50744   6.240  32.210  53.799
58821W        W50745  39.193   7.239  53.809
58822W        W50746   9.271  11.258  49.694
58823W        W50747  40.194  30.205  50.604
58824W        W50748  39.189   9.776  53.335
58825W        W50749  41.718  20.222  53.809
58826W        W50750  21.248  41.193  51.967
58827W        W50751  27.224  47.189  53.811
58828W        W50752  16.252  27.742  53.798
58829W        W50753  20.252  41.706  50.151
58830W        W50754  20.733  30.238  50.593
58831W        W50755  16.728  17.269  52.424
58832W        W50756  38.190  44.224  50.165
58833W        W50757   5.766  16.238  50.131
58834W        W50758   8.257  11.234  50.614
58835W        W50759  20.221  22.233  52.443
58836W        W50760  41.193  26.249  52.412
58837W        W50761  31.248  48.205  50.133
58838W        W50762  22.228  35.717  51.509
58839W        W50763  31.230   3.272  49.707
58840W        W50764  39.705  20.223  50.597
58841W        W50765  17.732  27.719  50.596
58842W        W50766  43.217   2.756  52.403
58843W        W50767  34.727  12.258  51.490
58844W        W50768  21.240  10.764  52.866
58845W        W50769   0.281   1.281  49.702
58846W        W50770  37.222   0.270  51.985
58847W        W50771  36.192  42.690  52.434
58848W        W50772  45.187  37.737  51.520
58849W        W50773  16.768  27.217  50.145
58850W        W50774  15.753  35.231  52.428
58851W        W50775  40.732   9.770  52.443
58852W        W50776  26.225  29.724  50.138
58853W        W50777  17.721   9.239  49.679
58854W        W50778  42.230   5.261  51.515
58855W        W50779   9.264  21.726  51.044
58856W        W50780  20.755  45.177  50.145
58857W        W50781  12.249  20.232  51.491
58858W        W50782  19.256  12.234  52.904
58859W        W50783   6.761  27.711  51.038
58860W        W50784  31.247  29.707  52.865
58861W        W50785   9.784  18.223  51.077
58862W        W50786  13.266   2.266  52.869
58863W        W50787  16.756  10.271  53.326
58864W        W50788   7.773  10.764  49.708
58865W        W50789  42.226  24.236  51.960
58866W        W50790  39.229   6.788  51.045
58867W        W50791  44.190  10.782  51.523
58868W        W50792  44.182  14.729  53.798
58869W        W50793   8.245  13.257  53.798
58870W        W50794  34.703  26.740  53.360
58871W        W50795   2.290  39.214  53.336
58872W        W50796  19.764  46.713  50.582
58873W        W50797   9.284  30.718  50.136
58874W        W50798  13.274  39.697  53.811
58875W        W50799  20.217  34.715  53.334
58876W        W50800   0.752   1.253  51.988
58877W        W50801  17.723  37.213  50.132
58878W        W50802  15.732  43.184  49.709
58879W        W50803  44.209  47.715  52.424
58880W        W50804  13.732  28.220  51.502
58881W        W50805  20.747  40.684  53.795
58882W        W50806  25.225  32.211  51.520
58883W        W50807   6.281  37.212  50.615
58884W        W50808  39.690  28.212  50.579
58885W        W50809  14.759  41.202  51.515
58886W        W50810  16.740  12.247  49.685
58887W        W50811  17.248  23.732  52.431
58888W        W50812  32.699  30.737  52.416
58889W        W50813  47.188  22.739  50.129
58890W        W50814  30.711  29.239  50.611
58891W        W50815  11.738   4.263  49.678
58892W        W50816   9.754  23.754  52.865
58893W        W50817  22.738   3.756  51.962
58894W        W50818   5.783  13.243  50.155
58895W        W50819  44.190  42.714  51.970
58896W        W50820  31.231  40.201  52.421
58897W        W50821  48.174   9.252  53.346
58898W        W50822   9.738  22.721  52.416
58899W        W50823  20.255  43.684  52.413
58900W        W50824  44.214  45.189  51.491
58901W        W50825   2.780  24.250  50.580
58902W        W50826  24.746  40.688  51.074
58903W        W50827  20.261  37.217  51.067
58904W        W50828  38.207  22.756  53.781
58905W        W50829  43.680   9.245  53.345
58906W        W50830  32.740  43.180  53.324
58907W        W50831  45.681   1.273  52.882
58908W        W50832   1.782  48.204  50.590
58909W        W50833  39.195  13.749  53.803
58910W        W50834  31.201   0.284  51.514
58911W        W50835  14.736  10.269  50.129
58912W        W50836  46.719  36.723  52.407
58913W        W50837  18.726  21.250  53.774
58914W        W50838  10.733   1.255  53.330
58915W        W50839   6.747  10.256  53.328
58916W        W50840   1.276   1.254  51.066
58917W        W50841  45.177  46.221  53.323
58918W        W50842  29.236  28.245  52.410
58919W        W50843  35.703  38.187  50.592
58920W        W50844  40.705   0.778  50.613
58921W        W50845  40.216  37.233  53.326
58922W        W50846   1.780   6.749  52.443
58923W        W50847   6.745  46.720  52.901
58924W        W50848  25.248  40.683  53.795
58925W        W50849  16.743   3.780  52.424
58926W        W50850  33.210  36.200  52.423
58927W        W50851   3.757  12.751  50.151
58928W        W50852  33.215   6.270  52.411
58929W        W50853  16.771   4.249  53.808
58930W        W50854   8.778   1.778  51.528
58931W        W50855  26.214  43.703  51.948
58932W        W50856  13.734  38.728  51.499
58933W        W50857  33.706   7.282  49.678
58934W        W50858  26.212  18.763  51.516
58935W        W50859  45.724  24.249  53.336
58936W        W50860   7.240  33.211  50.135
58937W        W50861  16.270   2.290  51.517
58938W        W50862  19.239  30.204  53.353
58939W        W50863   2.251  12.261  50.617
58940W        W50864  18.766  24.728  53.781
58941W        W50865  30.744  41.720  53.316
58942W        W50866   5.283   9.256  51.509
58943W        W50867  11.747  21.724  49.695
58944W        W50868  28.252   4.281  53.797
58945W        W50869  28.739   3.289  52.898
58946W        W50870  20.716  12.732  51.973
58947W        W50871   3.778  27.214  50.149
58948W        W50872   0.283  35.221  50.608
58949W        W50873   5.271  31.200  50.140
58950W        W50874  30.224  26.217  52.862
58951W        W50875  36.699  33.730  51.078
58952W        W50876  28.749  39.695  52.425
58953W        W50877  15.746  24.748  53.788
58954W        W50878  36.691  32.225  53.814
58955W        W50879  18.249  34.231  52.417
58956W        W50880  29.217  44.220  52.864
58957W        W50881  14.754  42.710  51.524
58958W        W50882  30.720  48.192  53.786
58959W        W50883  38.707  46.220  50.612
58960W        W50884  45.681   2.289  53.361
58961W        W50885  24.751  38.700  52.438
58962W        W50886  34.240  19.242  51.532
58963W        W50887   7.770  24.228  51.511
58964W        W50888  24.742   8.272  53.333
58965W        W50889  47.179  33.225  51.497
58966W        W50890  22.261  27.216  50.164
58967W        W50891  16.250  46.684  51.057
58968W        W50892  27.735  20.261  52.888
58969W        W50893  13.757  46.702  52.885
58970W        W50894   9.768  15.770  49.691
58971W        W50895  45.722   9.742  50.157
58972W        W50896  11.736  25.209  50.157
58973W        W50897  15.263  29.749  49.707
58974W        W50898   5.760  34.721  50.151
58975W        W50899  14.745   5.742  53.316
58976W        W50900  34.730  15.744  52.418
58977W        W50901  13.246  32.215  53.803
58978W        W50902  43.726  26.209  51.964
58979W        W50903  31.701  13.260  53.789
58980W        W50904  24.754  21.222  50.593
58981W        W50905  18.740   0.291  51.976
58982W        W50906  14.727   7.753  51.495
58983W        W50907  32.744  18.760  49.696
58984W        W50908  38.729  17.744  53.786
58985W        W50909  22.257  13.238  53.779
58986W        W50910  40.732   9.283  51.950
58987W        W50911   2.791   5.753  51.507
58988W        W50912  11.739  48.200  53.816
58989W        W50913  47.699  32.221  51.073
58990W        W50914  30.210  42.219  52.886
58991W        W50915  28.746  35.705  53.774
58992W        W50916  33.715  32.238  51.035
58993W        W50917  43.727  18.734  51.965
58994W        W50918   2.777  21.233  53.343
58995W        W50919   7.277  43.191  52.423
58996W        W50920   9.252  43.714  52.903
58997W        W50921  29.247  14.752  51.973
58998W        W50922  48.192  10.735  51.966
58999W        W50923  14.732  30.225  53.352
59000W        W50924   0.776  16.746  52.431
59001W        W50925  13.235  42.727  50.585
59002W        W50926  25.230  25.238  51.503
59003W        W50927   8.765   5.274  49.676
59004W        W50928  41.220  34.211  52.424
59005W        W50929  12.262  37.733  53.343
59006W        W50930   0.771  15.766  51.955
59007W        W50931  46.212  28.708  51.973
59008W        W50932   8.737  47.192  51.952
59009W        W50933  12.762  30.236  52.440
59010W        W50934  12.760  48.207  50.616
59011W        W50935   1.749  47.178  53.795
59012W        W50936  27.717  12.256  51.984
59013W        W50937   8.281  30.225  52.432
59014W        W50938  31.241  28.235  53.810
59015W        W50939  14.241  40.190  51.985
59016W        W50940   9.249  25.214  51.073
59017W        W50941  22.717  12.734  53.356
59018W        W50942  35.230  48.206  51.519
59019W        W50943   4.769   7.256  53.345
59020W        W50944   4.290  13.773  53.316
59021W        W50945   3.750  28.236  50.134
59022W        W50946  38.229  23.224  53.352
59023W        W50947  37.732  33.240  52.434
59024W        W50948   0.788   8.247  51.954
59025W        W50949  14.743  43.202  52.436
59026W        W50950  40.691   5.247  51.492
59027W        W50951  47.205  30.705  51.043
59028W        W50952   2.284  24.220  51.036
59029W        W50953  37.723  23.759  51.948
59030W        W50954  10.733  23.714  53.793
59031W        W50955  21.239  38.695  51.506
59032W        W50956  25.239  21.762  52.885
59033W        W50957  46.205   1.786  52.890
59034W        W50958  44.216   9.769  52.897
59035W        W50959  29.249  20.719  52.860
59036W        W50960  36.694  21.246  51.048
59037W        W50961  26.232  17.723  51.528
59038W        W50962  30.230  30.708  50.133
59039W        W50963  29.233   2.255  53.779
59040W        W50964   9.268  26.222  49.695
59041W        W50965  34.239  47.718  53.316
59042W        W50966  35.222  10.239  50.610
59043W        W50967   6.245  35.216  51.527
59044W        W50968  13.259   9.737  51.962
59045W        W50969  29.708   5.250  53.338
59046W        W50970  36.214  46.178  52.424
59047W        W50971  13.267   1.754  53.323
59048W        W50972  10.241  23.750  53.339
59049W        W50973  46.193  12.244  52.438
59050W        W50974  42.707  46.678  51.950
59051W        W50975   2.771   1.776  53.345
59052W        W50976  25.719  37.226  49.680
59053W        W50977  41.201   9.740  51.035
59054W        W50978   7.281  38.221  53.790
59055W        W50979  10.272   3.752  49.701
59056W        W50980   5.772  32.714  52.434
59057W        W50981   8.739  17.724  51.525
59058W        W50982   3.764  10.780  52.445
59059W        W50983  41.693  43.195  53.805
59060W        W50984  23.755  39.706  52.888
59061W        W50985  31.218  33.216  52.430
59062W        W50986  38.197  26.723  53.813
59063W        W50987  25.725   8.772  50.578
59064W        W50988  38.221  11.281  53.793
59065W        W50989  23.755  27.713  53.793
59066W        W50990   4.292  11.779  51.951
59067W        W50991  36.212  41.702  51.526
59068W        W50992  24.216  34.723  50.146
59069W        W50993  46.676   3.250  52.435
59070W        W50994  13.251  29.212  52.891
59071W        W50995  17.246  17.740  53.343
59072W        W50996  32.246   6.774  53.804
59073W        W50997  22.247  34.237  51.527
59074W        W50998  20.251  27.748  51.528
59075W        W50999  12.764   1.753  52.873
59076W        W51000   1.286  19.244  50.605
59077W        W51001  36.726   2.769  51.494
59078W        W51002  21.225  22.227  49.691
59079W        W51003  41.230  37.234  52.889
59080W        W51004  36.239  39.216  52.886
59081W        W51005  37.206  32.218  50.139
59082W        W51006  26.235  19.724  51.502
59083W        W51007   3.744   2.274  51.505
59084W        W51008  20.265  19.747  50.121
59085W        W51009   4.252   2.278  50.607
59086W        W51010  37.196  23.755  52.881
59087W        W51011   6.287   7.764  51.499
59088W        W51012  25.217  28.243  50.160
59089W        W51013   1.748  47.678  51.960
59090W        W51014   0.277  15.764  49.702
59091W        W51015   8.285  32.247  53.786
59092W        W51016  37.202   6.782  50.124
59093W        W51017  13.776  35.709  50.156
59094W        W51018  21.250  15.726  49.688
59095W        W51019  40.214   0.296  53.774
59096W        W51020  46.196   2.247  51.503
59097W        W51021   4.746  25.726  52.886
59098W        W51022  30.215  14.230  50.147
59099W        W51023  17.756  10.281  51.078
59100W        W51024  10.749  33.714  53.802
59101W        W51025  17.245  16.748  50.134
59102W        W51026  14.250  44.676  53.341
59103W        W51027  35.714  32.235  51.071
59104W        W51028   7.784  23.259  50.588
59105W        W51029  26.256  16.266  52.880
59106W        W51030  11.236  30.723  49.683
59107W        W51031  45.200  34.742  52.442
59108W        W51032   5.258  27.708  53.813
59109W        W51033  13.754  38.708  53.337
59110W        W51034  10.774  12.773  51.954
59111W        W51035  37.196  19.228  52.445
59112W        W51036  21.234  15.746  50.124
59113W        W51037  42.206  11.745  52.411
59114W        W51038  40.732  14.755  50.166
59115W        W51039   0.272  16.233  53.778
59116W        W51040  23.223   6.745  53.316
59117W        W51041  10.260   4.744  51.982
59118W        W51042  46.707  28.721  52.443
59119W        W51043  29.741   6.243  50.159
59120W        W51044  19.763  41.196  49.708
59121W        W51045  25.255   4.776  53.781
59122W        W51046  47.184  16.746  53.323
59123W        W51047   8.266  47.188  49.670
59124W        W51048  34.735  29.242  50.159
59125W        W51049  10.739  25.752  53.329
59126W        W51050  28.235  11.259  51.953
59127W        W51051  39.713  31.227  50.152
59128W        W51052   9.753  42.721  52.414
59129W        W51053   8.769  31.225  52.446
59130W        W51054  12.779  44.203  52.429
59131W        W51055  45.196  47.679  51.528
59132W        W51056  25.211  18.723  52.414
59133W        W51057  31.207  37.690  52.403
59134W        W51058  24.229  44.203  52.864
59135W        W51059  13.769  44.190  49.671
59136W        W51060  12.777  16.738  53.355
59137W        W51061  39.718  23.734  52.869
59138W        W51062   8.750   7.765  49.682
59139W        W51063  11.773  22.254  52.901
59140W        W51064  35.241  46.195  51.531
59141W        W51065  18.768  46.713  52.903
59142W        W51066  13.735  10.274  49.678
59143W        W51067   2.764  45.179  52.410
59144W        W51068  22.746  17.766  50.599
59145W        W51069  10.754  18.724  51.509
59146W        W51070  15.244  16.743  50.591
59147W        W51071  30.240  29.211  51.037
59148W        W51072  47.673  41.211  51.499
59149W        W51073  11.275   3.285  50.125
59150W        W51074  43.714   4.781  49.694
59151W        W51075  23.714  46.697  53.344
59152W        W51076  16.246  15.728  50.136
59153W        W51077  26.208  23.726  52.411
59154W        W51078  10.780  31.744  51.955
59155W        W51079  42.225  14.263  52.875
59156W        W51080  29.237   2.751  51.496
59157W        W51081  12.266  39.203  53.347
59158W        W51082  33.201  16.250  52.419
59159W        W51083  21.752   6.249  53.331
59160W        W51084  34.704  21.236  52.885
59161W        W51085   9.240  16.252  53.358
59162W        W51086  36.693  32.730  52.432
59163W        W51087  45.182  37.235  50.607
59164W        W51088  32.228  42.218  53.805
59165W        W51089   4.285  26.716  49.703
59166W        W51090  45.685   5.788  50.611
59167W        W51091  39.700  24.232  51.528
59168W        W51092   9.252  28.752  52.885
59169W        W51093   9.743  39.731  49.685
59170W        W51094   8.279  19.725  51.503
59171W        W51095  28.737  27.712  51.056
59172W        W51096   0.779  33.740  51.516
59173W        W51097  46.699   2.289  50.162
59174W        W51098   0.260   4.253  53.334
59175W        W51099  33.211  13.753  52.886
59176W        W51100   8.755  32.742  52.406
59177W        W51101   2.265   8.252  50.612
59178W        W51102  39.224  45.677  51.965
59179W        W51103  20.749  32.220  53.358
59180W        W51104  30.249  11.249  51.972
59181W        W51105  44.211  34.237  53.796
59182W        W51106  20.735  37.224  50.137
59183W        W51107  34.706  15.734  53.775
59184W        W51108  12.234  27.716  51.074
59185W        W51109  46.681  24.256  53.796
59186W        W51110   2.295  28.212  51.056
59187W        W51111  32.209  24.757  51.534
59188W        W51112  38.227  42.224  51.968
59189W        W51113  10.777  42.206  51.049
59190W        W51114  36.233  23.245  51.055
59191W        W51115  37.705  25.208  51.074
59192W        W51116  33.213  37.218  52.901
59193W        W51117  38.201  47.202  49.706
59194W        W51118  21.716  37.711  51.986
59195W        W51119  26.750  35.222  51.984
59196W        W51120  26.250   4.285  53.777
59197W        W51121  43.200  10.248  53.330
59198W        W51122  12.740  44.698  51.517
59199W        W51123  18.761   8.262  51.522
59200W        W51124  26.754   5.260  51.524
59201W        W51125  41.723   9.766  53.316
59202W        W51126   1.785  15.748  50.149
59203W        W51127   4.265  11.264  52.862
59204W        W51128   5.782   2.271  53.350
59205W        W51129   9.740  43.195  52.902
59206W        W51130  39.708   6.771  52.874
59207W        W51131  28.230  26.216  50.597
59208W        W51132   9.272   6.285  51.971
59209W        W51133  19.251  10.236  53.324
59210W        W51134  40.729  36.717  50.161
59211W        W51135   8.751  24.749  51.039
59212W        W51136  29.229  36.735  49.667
59213W        W51137  19.264  22.218  52.432
59214W        W51138   7.741  19.760  51.508
59215W        W51139  42.700  33.204  51.076
59216W        W51140   2.777   9.276  50.612
59217W        W51141  33.217  46.684  52.866
59218W        W51142   9.735  44.687  49.680
59219W        W51143  29.702  12.744  53.348
59220W        W51144   2.258  41.715  52.446
59221W        W51145   1.296  17.739  53.360
59222W        W51146   7.750  19.261  50.593
59223W        W51147  23.244  18.242  51.053
59224W        W51148  37.201  12.267  51.516
59225W        W51149  15.764  28.719  52.861
59226W        W51150  19.728  25.740  51.975
59227W        W51151   6.259  47.214  50.618
59228W        W51152  33.216   9.776  52.420
59229W        W51153  22.749  27.254  50.160
59230W        W51154  18.740  15.729  50.159
59231W        W51155   6.762  34.729  51.969
59232W        W51156   5.762  19.734  52.867
59233W        W51157  12.263  36.201  50.621
59234W        W51158  31.236  24.249  53.349
59235W        W51159  22.233   8.755  53.780
59236W        W51160  44.680  20.746  51.981
59237W        W51161  42.709  45.219  53.813
59238W        W51162   8.260  20.729  51.526
59239W        W51163  28.217  27.751  53.331
59240W        W51164  45.705   9.260  51.047
59241W        W51165  20.220  21.263  53.344
59242W        W51166  47.189   6.264  51.990
59243W        W51167   1.753  38.211  53.783
59244W        W51168   0.270  35.703  53.812
59245W        W51169  21.746   5.257  50.157
59246W        W51170  33.734  34.223  51.983
59247W        W51171  35.739  47.205  53.791
59248W        W51172  38.696  34.722  49.702
59249W        W51173  37.688  28.227  51.057
59250W        W51174  43.214  30.240  51.967
59251W        W51175  45.205  16.245  50.594
59252W        W51176  10.767  44.718  53.782
59253W        W51177   1.291   8.276  53.812
59254W        W51178  33.242  23.716  51.490
59255W        W51179  22.252  10.253  51.962
59256W        W51180   5.273  12.737  51.492
59257W        W51181  14.231   7.744  51.966
59258W        W51182   2.761  28.752  50.148
59259W        W51183  39.721  42.199  49.687
59260W        W51184  14.273  46.696  52.421
59261W        W51185  20.718  39.232  51.523
59262W        W51186  20.217  23.729  53.332
59263W        W51187  25.239   3.280  51.990
59264W        W51188  44.707   1.284  51.984
59265W        W51189  30.727  23.232  51.065
59266W        W51190  13.274  34.715  51.057
59267W        W51191   5.260  23.259  50.153
59268W        W51192  16.747  45.715  53.813
59269W        W51193  38.695   7.282  49.683
59270W        W51194  46.694  22.760  50.157
59271W        W51195  44.676  35.713  52.863
59272W        W51196  22.739  28.215  50.605
59273W        W51197   0.259   2.272  52.873
59274W        W51198   5.253  21.750  49.674
59275W        W51199   9.251   9.766  52.437
59276W        W51200  12.234  31.723  50.622
59277W        W51201  21.753  21.756  52.423
59278W        W51202  42.215  31.716  50.605
59279W        W51203  36.208  12.239  53.340
59280W        W51204  41.196  42.719  49.673
59281W        W51205   7.286  42.187  53.780
59282W        W51206   1.281  24.751  50.581
59283W        W51207  25.727  46.202  53.333
59284W        W51208  37.210  16.731  51.073
59285W        W51209  25.723  15.225  52.860
59286W        W51210  33.739  14.254  50.148
59287W        W51211  47.682   1.269  51.510
59288W        W51212  28.736  39.695  51.495
59289W        W51213  29.208  41.724  53.316
59290W        W51214  21.230  42.224  53.812
59291W        W51215   8.261  30.720  49.679
59292W        W51216  35.731   6.256  50.587
59293W        W51217  26.221  41.218  50.598
59294W        W51218  33.224  23.261  53.327
59295W        W51219  28.230   1.269  49.682
59296W        W51220  32.226  37.701  53.337
59297W        W51221  10.735   7.255  49.707
59298W        W51222  48.195   8.779  51.955
59299W        W51223  25.720   6.764  53.803
59300W        W51224  23.223  46.691  52.421
59301W        W51225  37.690  20.221  51.062
59302W        W51226  28.708   0.254  51.065
59303W        W51227  22.738  31.215  49.694
59304W        W51228  45.210  40.718  51.079
59305W        W51229  26.250  15.769  53.784
59306W        W51230   5.254  30.727  52.439
59307W        W51231  48.209  20.236  50.604
59308W        W51232  41.698  26.732  52.412
59309W        W51233  21.224  25.231  49.697
59310W        W51234  44.705  36.710  49.665
59311W        W51235  37.705  37.201  52.408
59312W        W51236   5.286   4.272  52.888
59313W        W51237   2.758  20.247  51.984
59314W        W51238  43.706  18.736  51.079
59315W        W51239  44.190  48.198  50.163
59316W        W51240   2.757  24.728  52.440
59317W        W51241  30.746  13.248  50.135
59318W        W51242  40.213  29.211  51.501
59319W        W51243   5.753  13.255  53.334
59320W        W51244  22.262  22.227  50.133
59321W        W51245  17.232  18.238  53.795
59322W        W51246  32.204  33.701  52.413
59323W        W51247   2.746  43.199  49.679
59324W        W51248   6.262  43.715  53.797
59325W        W51249  33.727   4.754  51.493
59326W        W51250  44.218  35.196  51.065
59327W        W51251  34.194  23.236  53.805
59328W        W51252  10.778  12.261  51.490
59329W        W51253  11.732  23.726  50.153
59330W        W51254  37.221  32.209  53.348
59331W        W51255   6.260  12.273  53.319
59332W        W51256  43.698  35.198  50.162
59333W        W51257  43.725  19.250  49.694
59334W        W51258  46.686  42.712  51.520
59335W        W51259   7.765  29.250  52.867
59336W        W51260   9.746  18.241  50.161
59337W        W51261  42.703  39.195  52.871
59338W        W51262  37.718  13.755  53.813
59339W        W51263  32.238   6.261  51.972
59340W        W51264  17.260   5.782  51.510
59341W        W51265  30.743   9.760  53.813
59342W        W51266  16.769  31.713  51.988
59343W        W51267   0.255  34.194  52.894
59344W        W51268  22.728  47.182  51.073
59345W        W51269  27.246   8.750  51.501
59346W        W51270  18.760   7.250  51.978
59347W        W51271  22.713  35.232  51.491
59348W        W51272  12.250  47.679  53.809
59349W        W51273   7.288  23.244  53.793
59350W        W51274  30.747  18.739  52.885
59351W        W51275   9.759   0.298  53.806
59352W        W51276  13.745  43.225  52.902
59353W        W51277  44.710   7.786  53.791
59354W        W51278  19.242   8.774  52.448
59355W        W51279  37.199  37.706  50.156
59356W        W51280  45.196  43.699  51.519
59357W        W51281  10.740  26.742  50.620
59358W        W51282  35.703   6.743  50.124
59359W        W51283  17.233  39.702  53.803
59360W        W51284  38.689  40.712  50.154
59361W        W51285  26.219   9.739  50.151
59362W        W51286  40.218  15.274  49.687
59363W        W51287   2.278  33.206  52.900
59364W        W51288  44.198  23.230  52.411
59365W        W51289  23.725   0.759  51.045
59366W        W51290  47.206  47.699  51.961
59367W        W51291   4.258  47.702  49.665
59368W        W51292  39.200  17.222  51.502
59369W        W51293  22.741  47.208  51.986
59370W        W51294  11.750  26.711  49.664
59371W        W51295  10.744  40.716  49.676
59372W        W51296  27.234   3.255  50.156
59373W        W51297  23.240   6.746  51.501
59374W        W51298  47.683   7.766  53.777
59375W        W51299  38.710  39.210  51.988
59376W        W51300  16.272   5.770  51.526
59377W        W51301  20.218   8.239  50.592
59378W        W51302   9.260   8.775  51.987
59379W        W51303   6.751  18.249  52.863
59380W        W51304  47.705  45.216  50.159
59381W        W51305  27.710  24.228  51.074
59382W        W51306  14.770  14.255  53.331
59383W        W51307  32.707   6.750  51.951
59384W        W51308  34.230  48.202  50.617
59385W        W51309  13.739  21.220  53.797
59386W        W51310  10.280  14.756  51.986
59387W        W51311  44.193   6.784  50.620
59388W        W51312  46.695  45.707  50.612
59389W        W51313   7.262  47.176  51.519
59390W        W51314  42.214  31.241  50.148
59391W        W51315  46.673  37.709  53.789
59392W        W51316  46.700  24.717  51.067
59393W        W51317   6.773  21.248  51.979
59394W        W51318  21.757   1.783  53.319
59395W        W51319  30.227  16.245  50.146
59396W        W51320  12.758  28.237  51.534
59397W        W51321  17.222  38.696  53.350
59398W        W51322  16.771   7.266  51.053
59399W        W51323  47.213  47.179  53.804
59400W        W51324   7.746  15.724  53.317
59401W        W51325  24.256  21.762  51.490
59402W        W51326  18.747  34.242  52.865
59403W        W51327  11.264  16.256  53.347
59404W        W51328  33.242  26.222  49.682
59405W        W51329  25.723  45.178  52.413
59406W        W51330  11.245   6.242  52.437
59407W        W51331  11.240  29.715  50.582
59408W        W51332  13.272  38.232  51.072
59409W        W51333  48.194  15.253  51.963
59410W        W51334  17.234  48.219  49.687
59411W        W51335  23.235  12.259  50.132
59412W        W51336  24.229  37.208  52.901
59413W        W51337  19.240  23.239  52.877
59414W        W51338  27.239  25.226  52.886
59415W        W51339  45.696  36.201  51.050
59416W        W51340  13.228  38.705  52.430
59417W        W51341  42.720  41.718  52.425
59418W        W51342   2.291  23.227  53.812
59419W        W51343  30.227  17.237  53.335
59420W        W51344  42.712  17.258  52.901
59421W        W51345  21.743  45.678  49.677
59422W        W51346  24.723  22.725  52.864
59423W        W51347  48.207  10.781  50.149
59424W        W51348  21.748  47.187  50.144
59425W        W51349   7.287  48.175  52.418
59426W        W51350  12.269  30.729  49.694
59427W        W51351  30.714   3.771  52.433
59428W        W51352   9.743  13.769  51.060
59429W        W51353  40.220  12.763  50.583
59430W        W51354  26.742  22.741  51.510
59431W        W51355  47.175  46.720  50.161
59432W        W51356  14.774  15.754  50.582
59433W        W51357   9.273  34.235  49.680
59434W        W51358   2.749  43.700  52.892
59435W        W51359  36.234   7.285  50.151
59436W        W51360  39.724  18.225  53.320
59437W        W51361  22.262  18.224  52.870
59438W        W51362  44.724  24.731  53.797
59439W        W51363  12.280  17.242  53.332
59440W        W51364  24.254  21.230  53.809
59441W        W51365   3.789  16.246  53.807
59442W        W51366  46.721  34.725  50.131
59443W        W51367   3.253   8.757  52.433
59444W        W51368  10.751   8.743  53.333
59445W        W51369  27.228  44.215  49.695
59446W        W51370  37.229   5.750  52.447
59447W        W51371  40.231  26.229  49.687
59448W        W51372  14.263   7.742  53.791
59449W        W51373  22.238   2.290  49.683
59450W        W51374   4.786  38.693  51.493
59451W        W51375  22.248  29.715  50.135
59452W        W51376  40.722   1.283  51.971
59453W        W51377  19.253  21.254  50.589
59454W        W51378  12.747  21.242  50.588
59455W        W51379  23.253  27.222  51.956
59456W        W51380  46.184   2.759  52.412
59457W        W51381  23.245  25.254  52.863
59458W        W51382  12.731  30.714  50.622
59459W        W51383  46.190  47.680  50.161
59460W        W51384  34.209  27.244  51.975
59461W        W51385  31.238   8.755  51.066
59462W        W51386  47.175  12.753  51.950
59463W        W51387  41.205  42.191  51.490
59464W        W51388  15.747  44.222  52.893
59465W        W51389  38.207  37.201  50.584
59466W        W51390  36.223  36.238  51.062
59467W        W51391   1.780  10.271  52.896
59468W        W51392  46.679   7.763  51.060
59469W        W51393  37.221  43.182  51.039
59470W        W51394  41.699   8.779  50.136
59471W        W51395  37.688  26.248  49.709
59472W        W51396   1.251  31.737  52.876
59473W        W51397  11.251  14.766  52.413
59474W        W51398  10.772  31.707  51.509
59475W        W51399  43.219  25.754  51.955
59476W        W51400  13.734   3.269  52.881
59477W        W51401   6.274  36.703  52.875
59478W        W51402  13.772  35.712  50.612
59479W        W51403  19.745  16.238  52.443
59480W        W51404  39.211  28.723  51.054
59481W        W51405  27.217  19.268  50.162
59482W        W51406  35.727  12.238  50.156
59483W        W51407   8.266  22.761  53.354
59484W        W51408   1.760  35.704  52.888
59485W        W51409   1.790  42.215  52.876
59486W        W51410   4.749  25.709  51.494
59487W        W51411  37.219   4.781  49.675
59488W        W51412   0.296  34.206  50.588
59489W        W51413   5.762   1.273  51.967
59490W        W51414  14.240  31.745  53.813
59491W        W51415  26.753   0.286  50.583
59492W        W51416  25.741  21.245  52.894
59493W        W51417  30.719  14.233  50.600
59494W        W51418  21.227  47.206  50.601
59495W        W51419  34.739   7.765  51.975
59496W        W51420  15.229  31.240  50.158
59497W        W51421  33.742  16.764  53.329
59498W        W51422  28.226  16.234  51.067
59499W        W51423  30.700  32.740  53.335
59500W        W51424  28.218  33.733  50.599
59501W        W51425  41.196  37.733  51.051
59502W        W51426  17.255  15.239  51.056
59503W        W51427  28.208  30.737  51.989
59504W        W51428  45.217  41.217  53.359
59505W        W51429  19.257  33.722  50.617
59506W        W51430  27.236  43.705  53.804
59507W        W51431   8.267  25.229  52.863
59508W        W51432   1.766  13.760  51.978
59509W        W51433  16.759   0.265  52.882
59510W        W51434  18.738  13.767  53.350
59511W        W51435  36.739  17.255  51.073
59512W        W51436  23.752  10.249  53.816
59513W        W51437   8.260  29.708  51.530
59514W        W51438  30.723  19.219  50.595
59515W        W51439  42.181  22.215  51.511
59516W        W51440  13.237  16.247  51.524
59517W        W51441  19.234  21.234  49.675
59518W        W51442   2.773  45.690  50.598
59519W        W51443  41.195  35.216  53.804
59520W        W51444   9.782  26.208  50.595
59521W        W51445  24.724   2.293  52.871
59522W        W51446  37.721  26.214  50.581
59523W        W51447  40.200  44.706  51.037
59524W        W51448  10.761  12.245  50.155
59525W        W51449  11.741  14.774  50.158
59526W        W51450   4.781  48.203  51.974
59527W        W51451  44.204  32.717  52.893
59528W        W51452   2.784  32.725  52.892
59529W        W51453  30.705  15.241  53.358
59530W        W51454  47.194  39.211  52.883
59531W        W51455   2.291  42.227  49.688
59532W        W51456  41.694  16.268  50.619
59533W        W51457  35.714  48.207  49.690
59534W        W51458  14.267  39.196  52.427
59535W        W51459  48.190  43.211  51.063
59536W        W51460  42.691  12.740  52.863
59537W        W51461  27.237  23.244  51.042
59538W        W51462  30.236  35.716  50.622
59539W        W51463   6.787  22.222  49.689
59540W        W51464  12.735  41.707  49.679
59541W        W51465  11.752  44.715  49.679
59542W        W51466  36.199  14.256  50.166
59543W        W51467  36.201  15.757  53.784
59544W        W51468  24.236  43.699  52.406
59545W        W51469  15.739  47.200  50.600
59546W        W51470  45.199   7.265  50.591
59547W        W51471  43.696  46.187  52.417
59548W        W51472   2.773   2.261  50.595
59549W        W51473  32.205  22.234  50.166
59550W        W51474  35.227  38.688  50.619
59551W        W51475  24.230  44.725  52.419
59552W        W51476  30.737   8.271  49.677
59553W        W51477   9.284   6.769  50.152
59554W        W51478   1.260  31.744  51.948
59555W        W51479  41.707  46.720  51.960
59556W        W51480   6.766  42.198  51.062
59557W        W51481   6.274  10.249  51.038
59558W        W51482   0.277  37.229  52.880
59559W        W51483  30.220   2.765  52.878
59560W        W51484  36.713  48.172  53.811
59561W        W51485  17.770  26.235  53.780
59562W        W51486  12.275  31.211  51.052
59563W        W51487  24.244  11.750  49.683
59564W        W51488  44.186  41.720  50.607
59565W        W51489  39.698  41.205  52.420
59566W        W51490  16.264   5.273  51.077
59567W        W51491   8.268  46.716  51.532
59568W        W51492  42.712  32.200  50.144
59569W        W51493  15.251  42.193  49.678
59570W        W51494  15.729  11.758  51.058
59571W        W51495  38.197  39.695  51.066
59572W        W51496  41.686   7.285  49.693
59573W        W51497  17.730  43.681  53.815
59574W        W51498  39.693  41.699  52.860
59575W        W51499   9.242  42.683  51.973
59576W        W51500  36.738  28.726  50.620
59577W        W51501  30.205  40.698  51.969
59578W        W51502  43.708  24.259  51.991
59579W        W51503  41.221  43.714  50.619
59580W        W51504   8.262  44.709  50.141
59581W        W51505  39.688  12.249  51.037
59582W        W51506  14.257   4.245  50.149
59583W        W51507  23.224   1.793  51.507
59584W        W51508  34.728  28.219  51.499
59585W        W51509  15.724  47.684  51.040
59586W        W51510  40.211  26.717  52.403
59587W        W51511   4.251   4.756  53.811
59588W        W51512  40.185   2.788  53.348
59589W        W51513  12.731  28.245  53.792
59590W        W51514  41.228  29.232  51.516
59591W        W51515  34.693  33.704  49.706
59592W        W51516  36.219  22.248  50.580
59593W        W51517   4.748   5.748  51.983
59594W        W51518  17.722   7.259  50.615
59595W        W51519  33.718  18.267  49.699
59596W        W51520  36.235   3.790  52.441
59597W        W51521   0.268  13.746  53.325
59598W        W51522  21.217  32.204  50.595
59599W        W51523  15.260  20.717  53.343
59600W        W51524  18.228  36.240  49.699
59601W        W51525  32.745   3.764  50.611
59602W        W51526   3.270  35.723  50.149
59603W        W51527  19.264  15.251  53.348
59604W        W51528  10.269  35.724  50.605
59605W        W51529  43.705  15.764  51.956
59606W        W51530  35.224   9.267  52.887
59607W        W51531  31.236  14.752  52.447
59608W        W51532  14.745  41.723  49.671
59609W        W51533   5.761  29.230  52.437
59610W        W51534  17.743  46.683  51.074
59611W        W51535   9.280  28.219  53.777
59612W        W51536   0.770  35.711  51.045
59613W        W51537  35.215  19.740  53.357
59614W        W51538  34.741  12.273  50.610
59615W        W51539  33.710  15.247  52.444
59616W        W51540  22.731  30.209  52.884
59617W        W51541  35.202   8.271  50.613
59618W        W51542   5.790  36.715  51.053
59619W        W51543  15.238   5.783  52.864
59620W        W51544  32.223  25.222  52.416
59621W        W51545  40.683  45.176  52.416
59622W        W51546  11.242  22.752  51.050
59623W        W51547  47.685   5.289  52.421
59624W        W51548   1.754  29.726  52.868
59625W        W51549  33.226  39.726  52.410
59626W        W51550   7.745  31.223  50.608
59627W        W51551  30.715  11.254  50.166
59628W        W51552  45.201   2.277  51.992
59629W        W51553  13.262  30.238  52.887
59630W        W51554  14.276  27.244  51.973
59631W        W51555  11.757   5.769  52.902
59632W        W51556   9.776  26.738  53.355
59633W        W51557  19.740  35.702  53.804
59634W        W51558  12.762   1.765  50.605
59635W        W51559  11.251   3.747  52.903
59636W        W51560  18.258  23.735  51.062
59637W        W51561  35.220  11.281  52.860
59638W        W51562  38.717  26.240  53.775
59639W        W51563  37.695  33.228  50.131
59640W        W51564  16.240  39.703  53.814
59641W        W51565  46.720  44.188  51.064
59642W        W51566   1.261   8.744  52.412
59643W        W51567   9.745  18.742  51.049
59644W        W51568  40.712  22.225  53.813
59645W        W51569   5.784   0.790  50.131
59646W        W51570  11.756  32.238  51.518
59647W        W51571  30.224   0.764  50.130
59648W        W51572  20.221   0.260  50.129
59649W        W51573   8.239   5.287  50.592
59650W        W51574  26.730  18.730  52.903
59651W        W51575  13.761  30.225  53.805
59652W        W51576   7.765  40.216  51.494
59653W        W51577  43.202  22.245  51.055
59654W        W51578  31.236  25.755  51.036
59655W        W51579  23.234  11.273  50.136
59656W        W51580  36.715   3.758  52.901
59657W        W51581  43.221  28.723  49.668
59658W        W51582  46.687   0.766  50.162
59659W        W51583  11.747  11.253  49.671
59660W        W51584  32.233  20.765  53.791
59661W        W51585  37.720  39.711  50.577
59662W        W51586  26.716  16.273  51.987
59663W        W51587   9.258   5.748  51.492
59664W        W51588  39.221   1.256  52.403
59665W        W51589   0.297   5.749  53.351
59666W        W51590  10.734   2.771  53.778
59667W        W51591  38.197  39.214  50.595
59668W        W51592  33.223  18.724  50.614
59669W        W51593  33.208   7.260  49.679
59670W        W51594  18.222  11.246  49.696
59671W        W51595  20.250  27.224  53.360
59672W        W51596  40.223   3.769  52.877
59673W        W51597  44.711  10.780  50.161
59674W        W51598  42.229   0.253  51.953
59675W        W51599  15.247  18.748  51.507
59676W        W51600  42.225  38.727  52.428
59677W        W51601  25.233  45.685  51.525
59678W        W51602  27.233   3.749  50.149
59679W        W51603  25.246   2.788  50.145
59680W        W51604  16.759  13.735  51.068
59681W        W51605  28.705  40.711  53.339
59682W        W51606  39.187  35.210  53.333
59683W        W51607  15.735  31.728  51.962
59684W        W51608  20.744  28.729  52.903
59685W        W51609  41.697  46.220  53.784
59686W        W51610  46.195   7.742  51.510
59687W        W51611  42.201  12.748  53.817
59688W        W51612  36.728  43.726  50.135
59689W        W51613  42.201  13.750  53.814
59690W        W51614  28.211  32.723  49.701
59691W        W51615  37.707   0.286  53.323
59692W        W51616  11.740  24.718  53.319
59693W        W51617  39.224  17.231  51.073
59694W        W51618  19.246  15.259  53.775
59695W        W51619  18.255  28.708  52.405
59696W        W51620   8.247   6.759  50.165
59697W        W51621  20.736  38.703  53.345
59698W        W51622   2.778  14.257  53.361
59699W        W51623   7.743  33.227  52.893
59700W        W51624  28.234  16.731  51.505
59701W        W51625  36.710  34.212  52.432
59702W        W51626  48.200  46.220  53.809
59703W        W51627  48.179  17.736  49.672
59704W        W51628  16.272  46.697  52.873
59705W        W51629  27.736  35.205  52.890
59706W        W51630  33.201  37.194  51.985
59707W        W51631  37.211  42.699  50.618
59708W        W51632   8.278  40.728  52.873
59709W        W51633  32.237  39.707  50.607
59710W        W51634  47.694  38.733  52.419
59711W        W51635  25.252   9.775  53.338
59712W        W51636   9.770  24.247  52.418
59713W        W51637   2.772   7.769  53.802
59714W        W51638  23.229  10.758  53.332
59715W        W51639  33.735  35.727  49.691
59716W        W51640  41.192  18.255  51.957
59717W        W51641  14.232   5.274  52.891
59718W        W51642   2.780   5.290  53.359
59719W        W51643  15.259  21.256  51.979
59720W        W51644  21.734  11.267  53.791
59721W        W51645  48.213   8.761  51.073
59722W        W51646  14.775  45.713  50.578
59723W        W51647   0.775   1.785  51.038
59724W        W51648  13.762  45.716  51.952
59725W        W51649  20.262  15.240  50.162
59726W        W51650   3.291  10.259  49.705
59727W        W51651   5.741  28.736  52.413
59728W        W51652  23.722   1.757  50.150
59729W        W51653  11.242  28.214  52.866
59730W        W51654   9.241  21.734  52.896
59731W        W51655   7.763  17.223  53.786
59732W        W51656  48.196   1.793  51.079
59733W        W51657  15.765  36.725  51.057
59734W        W51658  34.699  25.257  52.899
59735W        W51659   2.251  37.232  51.977
59736W        W51660  15.233  33.702  51.971
59737W        W51661  15.267   9.272  52.414
59738W        W51662  48.174  46.207  52.902
59739W        W51663  25.241  23.733  52.448
59740W        W51664   8.236  15.757  50.139
59741W        W51665  40.722   9.266  50.160
59742W        W51666  27.725   7.776  52.439
59743W        W51667  11.732  44.226  51.971
59744W        W51668  31.726   2.286  53.324
59745W        W51669  44.726  25.225  53.801
59746W        W51670  20.247   9.784  50.125
59747W        W51671  14.762  25.236  53.336
59748W        W51672  36.697   8.256  53.776
59749W        W51673  11.752  34.209  52.434
59750W        W51674  42.200  22.721  50.129
59751W        W51675  43.687   2.251  49.666
59752W        W51676  35.731  40.685  50.596
59753W        W51677  46.205   2.272  52.900
59754W        W51678  18.240  32.204  53.812
59755W        W51679  29.738  32.730  53.797
59756W        W51680  16.748  17.769  49.679
59757W        W51681  46.187  31.736  51.072
59758W        W51682  22.228  12.762  51.533
59759W        W51683   6.243   0.761  50.135
59760W        W51684   6.748  29.711  53.337
59761W        W51685  42.720  31.215  53.354
59762W        W51686  43.221  36.237  51.976
59763W        W51687  43.189  25.248  49.679
59764W        W51688   9.779  17.736  51.044
59765W        W51689  32.208   2.780  52.895
59766W        W51690  17.730  37.695  53.320
59767W        W51691   7.764   4.780  53.353
59768W        W51692  14.755  12.268  53.317
59769W        W51693   1.789  24.733  51.069
59770W        W51694   1.296  23.255  53.776
59771W        W51695  10.261  34.707  52.435
59772W        W51696   9.258  16.771  52.442
59773W        W51697  16.759  39.708  50.622
59774W        W51698  10.247   9.263  50.123
59775W        W51699  20.266  47.211  52.433
59776W        W51700  12.730  38.227  51.068
59777W        W51701  18.220   0.256  49.677
59778W        W51702  32.729  28.703  51.989
59779W        W51703  43.184  25.739  50.132
59780W        W51704  29.245  39.694  53.321
59781W        W51705   9.264  15.274  52.409
59782W        W51706   7.254   7.745  53.359
59783W        W51707  47.197  40.725  53.780
59784W        W51708   9.253  29.210  50.137
59785W        W51709  47.675  15.753  50.620
59786W        W51710   1.266  34.735  52.443
59787W        W51711  26.234  47.217  50.592
59788W        W51712  38.214  24.217  52.873
59789W        W51713  39.212  30.729  53.777
59790W        W51714  17.229  24.751  52.890
59791W        W51715  46.210  45.178  50.159
59792W        W51716  27.239   4.767  49.707
59793W        W51717  25.227  47.201  53.331
59794W        W51718  14.269  28.236  53.782
59795W        W51719  35.694  23.233  51.974
59796W        W51720   6.250  27.722  52.433
59797W        W51721  14.234  26.211  49.706
59798W        W51722  33.709  46.710  53.786
59799W        W51723  14.230  36.217  52.418
59800W        W51724  14.768  29.220  51.493
59801W        W51725  47.192  42.228  53.359
59802W        W51726   8.249   5.253  51.037
59803W        W51727  11.732  25.756  50.582
59804W        W51728  46.674  34.719  52.429
59805W        W51729  42.713  29.241  50.604
59806W        W51730  35.219   5.757  51.500
59807W        W51731   1.295  16.256  50.589
59808W        W51732  39.727   6.751  52.414
59809W        W51733  43.704  12.761  50.605
59810W        W51734   5.285   9.774  53.782
59811W        W51735   9.756  35.694  52.904
59812W        W51736  43.714   7.768  51.494
59813W        W51737  27.728   6.754  51.523
59814W        W51738  39.726   2.765  50.602
59815W        W51739  27.207  29.209  53.812
59816W        W51740  28.246   8.759  53.804
59817W        W51741   2.776  28.749  51.990
59818W        W51742  35.708  24.213  53.781
59819W        W51743  20.221  41.230  53.358
59820W        W51744  46.704  26.249  51.521
59821W        W51745  44.189   8.781  50.590
59822W        W51746  26.231  17.237  49.667
59823W        W51747  39.713  32.742  52.873
59824W        W51748  35.202   5.269  51.529
59825W        W51749  38.719   6.243  50.619
59826W        W51750  46.722  42.683  50.141
59827W        W51751  19.264  30.218  50.161
59828W        W51752  33.213   4.279  50.145
59829W        W51753  27.237  21.242  50.582
59830W        W51754  25.718  32.209  51.526
59831W        W51755  47.695  27.221  53.347
59832W        W51756  39.731  13.245  53.339
59833W        W51757  34.236  17.268  53.799
59834W        W51758  21.241  38.219  52.890
59835W        W51759  22.734  40.728  52.413
59836W        W51760  43.190  44.723  53.802
59837W        W51761  46.682  26.214  53.791
59838W        W51762  24.210  40.707  51.950
59839W        W51763   3.748   7.273  53.807
59840W        W51764  31.737  16.736  53.334
59841W        W51765  24.241  33.726  51.528
59842W        W51766  43.715  19.758  49.701
59843W        W51767   1.264  23.249  49.688
59844W        W51768   8.238  42.203  53.794
59845W        W51769  45.695  26.213  53.350
59846W        W51770   1.255  22.263  52.892
59847W        W51771   1.279  18.268  53.334
59848W        W51772   2.262  22.262  49.689
59849W        W51773  13.766  17.247  51.076
59850W        W51774   5.752  21.253  52.428
59851W        W51775  38.189   9.258  52.447
59852W        W51776  47.672  43.688  50.615
59853W        W51777  18.228  39.205  50.607
59854W        W51778  13.760   2.758  52.424
59855W        W51779  31.734  47.211  51.054
59856W        W51780  21.736  43.210  51.043
59857W        W51781  26.246  16.252  52.409
59858W        W51782  33.733  14.748  53.357
59859W        W51783  46.200   8.773  49.684
59860W        W51784  37.708  25.237  52.414
59861W        W51785   3.284  47.193  51.042
59862W        W51786  45.176   2.753  49.671
59863W        W51787  15.225  14.233  51.048
59864W        W51788  35.725  40.192  51.498
59865W        W51789  38.204  36.714  49.690
59866W        W51790  32.699  31.732  53.341
59867W        W51791  36.717  40.218  51.971
59868W        W51792  10.733  16.752  50.137
59869W        W51793  12.252   0.758  53.350
59870W        W51794   3.282   3.272  52.440
59871W        W51795   6.782  15.731  53.786
59872W        W51796  36.717  31.743  53.805
59873W        W51797   6.260  16.744  50.148
59874W        W51798  19.257   9.767  53.783
59875W        W51799  41.210  29.726  53.782
59876W        W51800   5.269  39.221  52.886
59877W        W51801   3.278  38.191  50.126
59878W        W51802  22.235  47.203  49.692
59879W        W51803  30.715  33.723  53.784
59880W        W51804  25.709  26.227  50.610
59881W        W51805   0.783  13.274  52.873
59882W        W51806   3.280  45.719  51.073
59883W        W51807   1.270   6.755  51.964
59884W        W51808   5.244  46.190  53.329
59885W        W51809  42.680  30.229  52.416
59886W        W51810  43.217  21.223  51.494
59887W        W51811  21.255  20.221  51.979
59888W        W51812  46.681  12.276  50.166
59889W        W51813  36.713  44.204  51.069
59890W        W51814  40.714  14.754  52.412
59891W        W51815  46.678  30.717  52.878
59892W        W51816  18.225  12.759  52.895
59893W        W51817  29.244   3.774  50.584
59894W        W51818  40.227  21.735  52.433
59895W        W51819   3.772  48.213  51.050
59896W        W51820  37.212   7.244  52.416
59897W        W51821  17.262  10.735  53.356
59898W        W51822  18.229   2.283  51.053
59899W        W51823  31.207  43.225  49.676
59900W        W51824  16.246  42.226  51.526
59901W        W51825  29.702   1.283  50.602
59902W        W51826  19.723  47.186  53.790
59903W        W51827  24.250   8.738  51.523
59904W        W51828  19.231   8.738  50.159
59905W        W51829  19.231  44.713  51.508
59906W        W51830  22.761  34.724  51.958
59907W        W51831  37.234   6.254  49.696
59908W        W51832  21.718  47.215  51.507
59909W        W51833  13.739  37.690  51.067
59910W        W51834   1.281  28.740  51.490
59911W        W51835  36.228  25.732  50.591
59912W        W51836   0.776  24.710  51.048
59913W        W51837  39.195  42.707  53.352
59914W        W51838  11.774  46.192  50.142
59915W        W51839  17.736  19.759  53.351
59916W        W51840  39.691  43.191  52.404
59917W        W51841   7.263  33.711  51.052
59918W        W51842  11.238  10.255  50.613
59919W        W51843  36.721  47.698  50.165
59920W        W51844  39.199  32.203  50.611
59921W        W51845  39.224  44.195  53.783
59922W        W51846  13.773  45.720  50.125
59923W        W51847  30.237  28.717  52.879
59924W        W51848  19.231  37.215  53.807
59925W        W51849  44.192  21.738  49.691
59926W        W51850   4.283  23.717  50.140
59927W        W51851  29.740  16.252  51.073
59928W        W51852  40.722  19.729  50.148
59929W        W51853  16.239  11.273  51.960
59930W        W51854  21.735  42.681  51.504
59931W        W51855   1.778  17.733  53.798
59932W        W51856  31.223  46.186  50.610
59933W        W51857  33.704  25.712  51.508
59934W        W51858  24.754  41.184  50.140
59935W        W51859  44.207  24.740  51.962
59936W        W51860  19.736  34.718  52.885
59937W        W51861  34.696   5.276  53.317
59938W        W51862   6.285  34.723  51.515
59939W        W51863  27.710  29.238  53.321
59940W        W51864  23.222  38.689  53.347
59941W        W51865  14.734  26.215  53.329
59942W        W51866  42.693  48.189  53.320
59943W        W51867  43.720  29.750  51.516
59944W        W51868   9.283  18.731  52.889
59945W        W51869  47.177  10.760  50.160
59946W        W51870  46.703  29.207  53.329
59947W        W51871  37.712   7.776  53.329
59948W        W51872  16.751  38.728  51.039
59949W        W51873  45.713  44.223  52.423
59950W        W51874  14.730  28.218  51.070
59951W        W51875   8.758   3.761  53.783
59952W        W51876  31.732  20.764  51.983
59953W        W51877  41.681  28.247  51.059
59954W        W51878  36.196  24.721  51.533
59955W        W51879  14.770  23.752  51.057
59956W        W51880  15.752  23.260  53.332
59957W        W51881  11.247  43.180  51.490
59958W        W51882  33.216  16.261  53.811
59959W        W51883  36.213  16.245  51.962
59960W        W51884   0.292  32.210  49.685
59961W        W51885   4.768  36.706  53.774
59962W        W51886  22.737   6.283  50.612
59963W        W51887  34.236  38.695  52.865
59964W        W51888  18.239   3.764  51.499
59965W        W51889  36.238   8.244  52.404
59966W        W51890  19.749   2.782  51.526
59967W        W51891  20.758  17.745  51.976
59968W        W51892  36.729   5.245  53.352
59969W        W51893  47.185  18.730  52.433
59970W        W51894   8.771   2.278  51.072
59971W        W51895  12.744  40.709  51.045
59972W        W51896  44.723  35.712  49.697
59973W        W51897   8.772  46.204  52.883
59974W        W51898  46.682   5.275  49.668
59975W        W51899  24.246  16.748  53.806
59976W        W51900  16.235  44.704  51.064
59977W        W51901  40.219  44.188  53.772
59978W        W51902  23.755  36.726  51.050
59979W        W51903  40.229  45.186  52.870
59980W        W51904  47.215  22.757  52.884
59981W        W51905  48.176  13.233  53.321
59982W        W51906   9.250   8.744  53.775
59983W        W51907  43.719   6.254  51.965
59984W        W51908  48.215  14.747  49.707
59985W        W51909  19.224  34.218  51.973
59986W        W51910  43.212  22.214  50.149
59987W        W51911  21.750  27.214  49.672
59988W        W51912  41.207  46.174  52.888
59989W        W51913  14.770  20.248  52.436
59990W        W51914   0.752  18.765  52.876
59991W        W51915  35.726  40.685  53.332
59992W        W51916  35.692   0.764  53.345
59993W        W51917  36.690  35.218  49.697
59994W        W51918  38.709   3.277  50.134
59995W        W51919  24.243  26.243  51.038
59996W        W51920  38.730  46.693  50.586
59997W        W51921  24.249  25.220  52.434
59998W        W51922   2.265  40.727  52.898
59999W        W51923  21.722  25.743  53.812
60000W        W51924  30.717   6.781  51.508
60001W        W51925  32.745  21.733  50.133
60002W        W51926  41.689  29.729  50.147
60003W        W51927  34.697  43.221  51.519
60004W        W51928  19.766  15.735  52.876
60005W        W51929  16.772  47.189  52.865
60006W        W51930  45.698  33.217  50.609
60007W        W51931  42.712  47.682  51.979
60008W        W51932  17.727   0.260  51.494
60009W        W51933  43.703  47.178  50.605
60010W        W51934   0.757  29.231  51.502
60011W        W51935  30.249  10.244  52.411
60012W        W51936  46.220  10.747  52.898
60013W        W51937   7.768  36.201  50.151
60014W        W51938  18.224  13.247  53.776
60015W        W51939  45.676  37.214  49.710
60016W        W51940   1.753  10.240  49.690
60017W        W51941  33.228  10.774  51.963
60018W        W51942  39.205   2.286  53.316
60019W        W51943  22.743  24.714  51.960
60020W        W51944   4.289  32.205  52.864
60021W        W51945  29.230  19.223  51.516
60022W        W51946   1.748   9.770  52.429
60023W        W51947  39.232  35.219  49.688
60024W        W51948   7.786   4.266  52.877
60025W        W51949  33.244  20.247  50.584
60026W        W51950  11.757  25.722  52.426
60027W        W51951  33.724  48.196  51.043
60028W        W51952  27.737  34.737  53.320
60029W        W51953   2.764  18.266  53.320
60030W        W51954  12.268   1.762  52.407
60031W        W51955  21.261  35.694  52.873
60032W        W51956  14.731  33.700  50.121
60033W        W51957  44.181  14.766  52.900
60034W        W51958  16.764  17.249  53.347
60035W        W51959  36.732  29.247  53.809
60036W        W51960   9.736  13.768  50.592
60037W        W51961  44.205  34.716  50.143
60038W        W51962  28.703   9.279  53.776
60039W        W51963  21.239  28.748  52.444
60040W        W51964  47.221  35.218  49.708
60041W        W51965  14.746  46.720  51.061
60042W        W51966  39.198  47.688  51.070
60043W        W51967  28.708  47.187  52.406
60044W        W51968  38.214  41.201  53.803
60045W        W51969   9.781   9.745  51.078
60046W        W51970  19.762  11.255  52.903
60047W        W51971  32.209  12.277  52.876
60048W        W51972  11.757  35.201  52.426
60049W        W51973  43.194  47.693  50.148
60050W        W51974  10.754  36.704  51.957
60051W        W51975  18.261   9.750  53.783
60052W        W51976  26.231   0.296  51.970
60053W        W51977   4.754  48.177  49.704
60054W        W51978  40.216  34.698  51.520
60055W        W51979   0.778   6.266  50.591
60056W        W51980  14.230  17.248  50.160
60057W        W51981   1.750  12.243  50.590
60058W        W51982  22.753   9.771  51.949
60059W        W51983  47.182  12.773  51.055
60060W        W51984  30.737  37.191  52.403
60061W        W51985  37.720   2.793  49.707
60062W        W51986  34.731  17.758  53.809
60063W        W51987  13.260  13.278  51.984
60064W        W51988   3.294   7.766  49.691
60065W        W51989  42.184  17.265  53.809
60066W        W51990  35.234  32.707  51.494
60067W        W51991  40.219   5.755  51.979
60068W        W51992  38.732  29.724  51.494
60069W        W51993  46.693  16.250  50.597
60070W        W51994  13.249  33.239  50.144
60071W        W51995  19.233  23.234  51.068
60072W        W51996  30.238  20.220  52.865
60073W        W51997  31.703  34.205  52.885
60074W        W51998  16.273  36.703  52.879
60075W        W51999  25.217   3.280  49.690
60076W        W52000  42.196  29.220  51.515
60077W        W52001  19.746  21.737  53.346
60078W        W52002   7.746  36.693  51.520
60079W        W52003  34.699  30.212  52.406
60080W        W52004   0.787  11.777  50.155
60081W        W52005  33.731  41.216  51.530
60082W        W52006  34.708  11.734  50.593
60083W        W52007  47.696   7.744  52.434
60084W        W52008  35.703  18.754  50.163
60085W        W52009  23.227  11.743  51.495
60086W        W52010   3.788   2.784  53.812
60087W        W52011  27.250  43.222  51.525
60088W        W52012  30.749  34.741  49.678
60089W        W52013  25.715  12.276  52.419
60090W        W52014  35.223  35.736  51.960
60091W        W52015   6.273  21.254  50.619
60092W        W52016  16.740  18.252  50.141
60093W        W52017  13.229   2.256  49.686
60094W        W52018  47.720   2.270  50.622
60095W        W52019  46.205  47.178  51.074
60096W        W52020   2.286  24.250  53.327
60097W        W52021  11.738  19.238  51.051
60098W        W52022  25.244  32.736  49.705
60099W        W52023  14.255  45.696  51.517
60100W        W52024   4.761  48.199  51.530
60101W        W52025  28.710  39.217  53.797
60102W        W52026  15.767  13.774  51.510
60103W        W52027  28.743  21.243  53.804
60104W        W52028  25.244  18.758  51.074
60105W        W52029  33.222  10.268  51.990
60106W        W52030  16.769   1.280  51.042
60107W        W52031  32.737  10.259  50.152
60108W        W52032  40.725  26.708  51.518
60109W        W52033  24.713   3.778  51.971
60110W        W52034  35.239  43.724  51.065
60111W        W52035  11.239  22.251  51.990
60112W        W52036  22.245  21.735  53.781
60113W        W52037  27.217  41.224  51.980
60114W        W52038  12.236   0.797  53.789
60115W        W52039  44.227  23.243  51.062
60116W        W52040  29.729   8.755  52.866
60117W        W52041  23.744  38.726  49.667
60118W        W52042  20.750  27.231  52.872
60119W        W52043  31.709   4.262  52.416
60120W        W52044  21.755  13.772  51.504
60121W        W52045  40.705  42.689  52.881
60122W        W52046  18.727  29.248  50.125
60123W        W52047  21.250  46.220  51.046
60124W        W52048  18.238  17.239  51.055
60125W        W52049  29.232   1.752  53.793
60126W        W52050  34.210  13.242  53.797
60127W        W52051  25.722   9.744  52.893
60128W        W52052  21.743   0.293  52.418
60129W        W52053  31.731  33.212  50.594
60130W        W52054   7.246  32.737  50.149
60131W        W52055  16.255  24.717  53.333
60132W        W52056  27.740  43.193  51.051
60133W        W52057  39.720  47.713  51.074
60134W        W52058  45.685  12.244  53.811
60135W        W52059  33.714   6.759  51.528
60136W        W52060  41.682  13.254  51.040
60137W        W52061  27.246   7.764  53.813
60138W        W52062  22.216  32.243  49.698
60139W        W52063  23.252  21.755  51.071
60140W        W52064   1.283  15.246  52.429
60141W        W52065  27.206  29.246  51.511
60142W        W52066  34.715  42.695  53.796
60143W        W52067  25.224  11.249  50.141
60144W        W52068  40.711  28.234  51.058
60145W        W52069  16.724   3.769  51.049
60146W        W52070   4.283  37.696  51.075
60147W        W52071  27.724  46.217  50.613
60148W        W52072  13.746  22.730  51.509
60149W        W52073   3.744  24.731  50.132
60150W        W52074  13.731  17.239  52.441
60151W        W52075  39.718  15.252  51.063
60152W        W52076  38.732   4.290  52.425
60153W        W52077  22.263  46.188  52.421
60154W        W52078  34.698  19.228  52.442
60155W        W52079   2.271  15.271  53.335
60156W        W52080  17.241  15.759  52.446
60157W        W52081  36.215  24.242  50.159
60158W        W52082  40.697  13.767  52.432
60159W        W52083  45.209  17.764  51.493
60160W        W52084  14.742  43.693  50.133
60161W        W52085  24.755  26.238  51.532
60162W        W52086  19.756  46.675  51.037
60163W        W52087  46.689  33.717  53.786
60164W        W52088   7.242  11.279  50.128
60165W        W52089  27.738  34.231  52.439
60166W        W52090  27.214  26.256  50.592
60167W        W52091  30.209  31.226  52.442
60168W        W52092  11.280  48.172  53.319
60169W        W52093  34.736  37.699  53.780
60170W        W52094  21.737  24.222  50.612
60171W        W52095  36.694  27.706  53.773
60172W        W52096  36.722   8.775  53.782
60173W        W52097   9.739  38.686  50.163
60174W        W52098  42.691   6.756  52.889
60175W        W52099  17.728  15.747  49.695
60176W        W52100   9.754  43.701  51.041
60177W        W52101  43.195  46.178  51.966
60178W        W52102  18.233  43.221  49.672
60179W        W52103  24.710  44.196  51.504
60180W        W52104  42.692  42.225  52.872
60181W        W52105  21.728   9.750  52.416
60182W        W52106  22.735  28.213  49.683
60183W        W52107  16.225   5.743  51.972
60184W        W52108  30.709  38.733  51.043
60185W        W52109  41.230  18.754  51.064
60186W        W52110  38.715  15.729  50.596
60187W        W52111  20.748   1.781  50.163
60188W        W52112  20.763   3.285  50.607
60189W        W52113  20.738  17.758  53.349
60190W        W52114  44.186  48.173  49.674
60191W        W52115  35.698  38.691  50.597
60192W        W52116   5.745  15.262  50.617
60193W        W52117  23.253  46.682  51.079
60194W        W52118  18.744   1.278  53.811
60195W        W52119   0.777  13.769  49.672
60196W        W52120  26.245  11.749  51.974
60197W        W52121  21.241   3.258  51.503
60198W        W52122  21.249  21.761  51.072
60199W        W52123   4.769  44.225  51.526
60200W        W52124  46.696   1.790  50.588
60201W        W52125   3.259   0.750  51.059
60202W        W52126   9.275  12.749  53.801
60203W        W52127  37.196  43.215  50.586
60204W        W52128  42.186   4.783  52.405
60205W        W52129  36.208  41.209  53.329
60206W        W52130  22.722  26.729  51.050
60207W        W52131  24.246  44.181  53.335
60208W        W52132   0.258  40.702  53.323
60209W        W52133  24.752  40.224  51.037
60210W        W52134  23.213  37.238  51.500
60211W        W52135  15.250   4.272  51.525
60212W        W52136  31.244  20.239  49.678
60213W        W52137  46.708  33.245  49.685
60214W        W52138   1.790  28.711  53.779
60215W        W52139  31.743  41.693  49.699
60216W        W52140  16.239   2.289  53.348
60217W        W52141  21.221  36.213  50.135
60218W        W52142  30.235  29.730  51.074
60219W        W52143  28.724  12.767  50.592
60220W        W52144  11.279  24.718  50.161
60221W        W52145   9.739  13.231  51.955
60222W        W52146  28.703   8.750  49.682
60223W        W52147  25.740  32.245  53.348
60224W        W52148  46.684  34.735  49.673
60225W        W52149  15.745   3.269  49.678
60226W        W52150  43.211  48.172  52.427
60227W        W52151  20.726  18.756  53.318
60228W        W52152  33.230  39.230  53.790
60229W        W52153  32.728  31.227  52.409
60230W        W52154  27.233  39.224  52.884
60231W        W52155  21.239  31.224  51.059
60232W        W52156  11.236  18.745  51.976
60233W        W52157  33.230  48.187  50.144
60234W        W52158  23.231  24.240  51.049
60235W        W52159  14.261  13.259  51.950
60236W        W52160  32.203  47.204  53.796
60237W        W52161  26.730  31.244  51.533
60238W        W52162  45.205  29.705  49.698
60239W        W52163  35.713   1.785  50.601
60240W        W52164  11.755  11.247  52.880
60241W        W52165  15.765   7.274  53.811
60242W        W52166  46.188  33.214  50.133
60243W        W52167  28.203  43.682  50.617
60244W        W52168  47.205  13.277  50.593
60245W        W52169  20.748   8.253  53.808
60246W        W52170  18.759   1.762  49.670
60247W        W52171  28.240  35.734  53.336
60248W        W52172  23.221  32.725  50.162
60249W        W52173   9.282  11.744  51.517
60250W        W52174  46.723  30.216  50.601
60251W        W52175  29.731  39.201  53.812
60252W        W52176   7.776  27.210  53.336
60253W        W52177  15.231  25.212  51.056
60254W        W52178  18.255  29.245  53.780
60255W        W52179  36.238  27.714  51.991
60256W        W52180  10.759   5.286  51.070
60257W        W52181  36.695   0.795  51.531
60258W        W52182  41.198   1.783  52.428
60259W        W52183  40.706  27.231  50.156
60260W        W52184  39.700   7.240  53.325
60261W        W52185  12.266  27.730  51.515
60262W        W52186  30.735  31.225  52.864
60263W        W52187  10.778  23.219  51.953
60264W        W52188  43.717  14.726  51.519
60265W        W52189  45.207  12.757  52.884
60266W        W52190  18.264  27.706  50.162
60267W        W52191  15.241  10.749  51.981
60268W        W52192  11.769  15.725  51.071
60269W        W52193   5.779  26.246  50.129
60270W        W52194  30.218   3.260  52.904
60271W        W52195  32.246  18.736  50.580
60272W        W52196  38.704  12.745  51.065
60273W        W52197  34.243  10.733  53.817
60274W        W52198  37.716  43.689  50.137
60275W        W52199  28.248  30.231  49.679
60276W        W52200  27.220  12.235  51.492
60277W        W52201  19.234  39.732  50.594
60278W        W52202  10.774  33.223  51.508
60279W        W52203  28.715  30.221  52.872
60280W        W52204  33.203   6.257  49.687
60281W        W52205   7.760   2.265  53.776
60282W        W52206   6.777  11.257  50.612
60283W        W52207  39.720  11.238  53.338
60284W        W52208   3.777  46.196  53.345
60285W        W52209  48.189  13.277  51.510
60286W        W52210  20.248  21.261  51.077
60287W        W52211  33.698   9.745  50.621
60288W        W52212   0.781  46.222  49.666
60289W        W52213  12.766  15.727  52.890
60290W        W52214  14.254  19.717  51.055
60291W        W52215  16.226  28.248  53.803
60292W        W52216  29.749  31.248  53.813
60293W        W52217  40.731  33.200  50.584
60294W        W52218  15.773  40.701  53.323
60295W        W52219  31.738   1.295  51.490
60296W        W52220  23.236  10.741  52.437
60297W        W52221  39.219  12.773  52.882
60298W        W52222  46.716   3.254  52.874
60299W        W52223  34.204  31.721  51.969
60300W        W52224   2.265  25.711  52.876
60301W        W52225   0.761  17.745  51.073
60302W        W52226  18.720  27.228  50.596
60303W        W52227   9.252  36.700  51.532
60304W        W52228  20.222  24.728  51.059
60305W        W52229  13.768   6.779  50.129
60306W        W52230   7.275  37.221  53.318
60307W        W52231   3.768  24.251  51.039
60308W        W52232  12.237  17.244  49.702
60309W        W52233  15.743  25.219  52.444
60310W        W52234  47.701  28.224  52.435
60311W        W52235  46.203  47.699  53.784
60312W        W52236  41.212  25.215  53.326
60313W        W52237  13.775  30.740  51.523
60314W        W52238  14.734  35.697  52.434
60315W        W52239  25.216  40.696  51.492
60316W        W52240  23.739  22.744  51.045
60317W        W52241  35.199  10.739  51.954
60318W        W52242  45.698  23.738  50.620
60319W        W52243  19.231   4.267  51.984
60320W        W52244   2.770  45.681  52.869
60321W        W52245  40.696   2.747  49.678
60322W        W52246  47.674  23.715  51.497
60323W        W52247   0.786  36.191  52.895
60324W        W52248  33.222  47.218  49.668
60325W        W52249  14.268   2.761  50.140
60326W        W52250  46.705  29.739  51.501
60327W        W52251  30.236  23.757  51.961
60328W        W52252   9.783  47.183  53.778
60329W        W52253  10.748  22.255  53.787
60330W        W52254   6.743  13.256  53.812
60331W        W52255  34.220   4.273  52.424
60332W        W52256  31.246  35.218  50.589
60333W        W52257   0.758  27.240  50.133
60334W        W52258  28.723  31.231  50.588
60335W        W52259   3.778   6.751  51.512
60336W        W52260  42.227  12.249  51.506
60337W        W52261  11.242  13.239  53.787
60338W        W52262  12.772  34.229  51.535
60339W        W52263  33.702  36.226  50.145
60340W        W52264  34.736  10.260  51.970
60341W        W52265   1.789   4.258  50.597
60342W        W52266  37.232  26.212  52.404
60343W        W52267  14.248  36.225  49.677
60344W        W52268   1.783  17.224  52.887
60345W        W52269  30.241  30.234  51.078
60346W        W52270  44.725  40.218  52.440
60347W        W52271  17.237   0.749  51.055
60348W        W52272   3.247   2.764  52.418
60349W        W52273   6.760  45.223  51.534
60350W        W52274  36.212  34.722  50.583
60351W        W52275  21.753  26.736  50.606
60352W        W52276  31.747   9.267  53.323
60353W        W52277  23.721  43.217  51.960
60354W        W52278   9.760   5.746  51.523
60355W        W52279  24.757   3.786  50.617
60356W        W52280   2.273  37.220  50.589
60357W        W52281  39.718  39.705  53.786
60358W        W52282  41.201  14.742  53.785
60359W        W52283  46.207   0.276  51.034
60360W        W52284  47.717  39.214  52.863
60361W        W52285  16.270   9.740  50.622
60362W        W52286   1.766  46.175  53.317
60363W        W52287  40.688  12.261  52.887
60364W        W52288  10.241  47.198  53.316
60365W        W52289  32.697   3.292  51.497
60366W        W52290  14.744  32.246  50.600
60367W        W52291  12.733  45.699  52.404
60368W        W52292  33.717  33.702  52.425
60369W        W52293  34.217  33.198  53.814
60370W        W52294  21.737  38.706  52.409
60371W        W52295  13.276  16.745  49.705
60372W        W52296  30.222  21.229  53.806
60373W        W52297  38.702  10.272  52.406
60374W        W52298  46.700  21.247  50.121
60375W        W52299  26.223  13.260  50.614
60376W        W52300  25.245  44.200  49.696
60377W        W52301  46.696   8.275  51.961
60378W        W52302  11.232  43.200  53.360
60379W        W52303   3.790   5.772  49.681
60380W        W52304   5.746  47.674  50.139
60381W        W52305  34.724  39.213  50.593
60382W        W52306  43.213   9.771  49.676
60383W        W52307  41.720  22.226  51.531
60384W        W52308  44.692  24.234  53.803
60385W        W52309   4.772  22.222  53.773
60386W        W52310  15.246  47.712  50.596
60387W        W52311  37.725  27.223  53.801
60388W        W52312  19.221  31.725  52.432
60389W        W52313  16.763  36.730  53.780
60390W        W52314  28.210  39.713  52.886
60391W        W52315  10.240   2.785  53.342
60392W        W52316  14.759  37.218  50.122
60393W        W52317  46.709  41.711  50.155
60394W        W52318  45.197  40.201  49.678
60395W        W52319  45.199  30.736  51.061
60396W        W52320  44.709  32.737  51.978
60397W        W52321   7.765   4.288  53.323
60398W        W52322  37.196  42.687  49.666
60399W        W52323  24.229  46.212  51.491
60400W        W52324  47.198  29.211  52.876
60401W        W52325   1.765  16.262  52.895
60402W        W52326  37.237  30.227  49.676
60403W        W52327   6.242  39.228  50.151
60404W        W52328  23.752   8.268  52.412
60405W        W52329  34.234  14.240  51.079
60406W        W52330  37.705  38.695  51.509
60407W        W52331  31.237  26.248  51.076
60408W        W52332   4.248  20.232  49.681
60409W        W52333  46.705  18.239  50.132
60410W        W52334  21.230  12.254  51.504
60411W        W52335   1.781  39.215  53.774
60412W        W52336  21.738  32.700  52.422
60413W        W52337  34.731   9.741  52.444
60414W        W52338  32.698  46.219  49.681
60415W        W52339  29.225  38.703  51.498
60416W        W52340  40.723  47.176  51.050
60417W        W52341  24.212  13.257  50.578
60418W        W52342  24.743  12.269  49.672
60419W        W52343  24.733   0.289  50.605
60420W        W52344   4.778  37.709  51.973
60421W        W52345  18.267  18.748  51.494
60422W        W52346  41.727  31.244  51.515
60423W        W52347  11.234  26.748  53.791
60424W        W52348  25.735  19.718  52.870
60425W        W52349   8.264  13.751  50.617
60426W        W52350  15.274  29.251  52.445
60427W        W52351   7.246  15.241  53.812
60428W        W52352   4.758  20.256  53.805
60429W        W52353   5.779  29.208  53.814
60430W        W52354   8.750  11.780  53.336
60431W        W52355  37.189   9.250  50.587
60432W        W52356  34.707  36.226  51.059
60433W        W52357  32.704   2.263  50.612
60434W        W52358   8.247  36.212  53.816
60435W        W52359  26.230  10.767  51.071
60436W        W52360  10.748  35.729  53.790
60437W        W52361   9.276  34.228  53.328
60438W        W52362  32.735  31.242  50.586
60439W        W52363  19.245  33.736  52.444
60440W        W52364   6.258  19.221  51.490
60441W        W52365  33.729  32.703  51.502
60442W        W52366  12.236  37.219  53.806
60443W        W52367  36.700  18.740  51.987
60444W        W52368  27.717   0.272  50.591
60445W        W52369  25.755  31.702  52.893
60446W        W52370  47.714  14.260  50.151
60447W        W52371  43.678   1.776  52.405
60448W        W52372  40.716   9.262  49.675
60449W        W52373  15.252  42.208  52.438
60450W        W52374  37.209   6.288  51.503
60451W        W52375  37.201  48.220  51.980
60452W        W52376  42.697  28.718  51.991
60453W        W52377   5.250  39.223  53.794
60454W        W52378  24.741  29.745  52.868
60455W        W52379  41.197   0.291  50.603
60456W        W52380  33.220   3.758  50.593
60457W        W52381  37.727   1.789  51.503
60458W        W52382  30.236  23.213  53.811
60459W        W52383  37.200  12.255  51.984
60460W        W52384  13.237   4.281  50.594
60461W        W52385  47.203  47.194  49.692
60462W        W52386  30.711  42.707  52.871
60463W        W52387   8.773  25.724  53.808
60464W        W52388  34.242  43.720  53.348
60465W        W52389  12.755  48.195  53.360
60466W        W52390  35.225   6.276  51.042
60467W        W52391  42.705  13.265  53.804
60468W        W52392  41.196  31.225  53.786
60469W        W52393  36.213  30.248  53.776
60470W        W52394  17.754  20.749  51.524
60471W        W52395  38.210  38.696  49.699
60472W        W52396  20.231  19.741  51.974
60473W        W52397  38.203  28.216  52.883
60474W        W52398  43.211  20.727  49.700
60475W        W52399  27.721  27.745  49.697
60476W        W52400  15.765  33.740  52.878
60477W        W52401  29.251  24.735  53.334
60478W        W52402   5.784  24.727  52.897
60479W        W52403  14.234  21.239  51.531
60480W        W52404  43.218  14.250  51.065
60481W        W52405  30.701  15.225  50.129
60482W        W52406  36.201  38.702  51.042
60483W        W52407  23.734   6.764  51.494
60484W        W52408  33.709  20.758  51.042
60485W        W52409  16.724   2.260  51.047
60486W        W52410   7.749   5.276  53.796
60487W        W52411  20.750   4.760  53.782
60488W        W52412  33.741  33.705  51.948
60489W        W52413  31.730  32.733  50.598
60490W        W52414  31.721  18.258  50.133
60491W        W52415   5.258  42.213  49.679
60492W        W52416  44.723   0.782  53.810
60493W        W52417  45.706  34.742  53.346
60494W        W52418  39.722  28.211  52.888
60495W        W52419   4.779  14.253  51.971
60496W        W52420   5.255  21.242  51.976
60497W        W52421   0.252  48.202  52.875
60498W        W52422  36.231   3.786  50.160
60499W        W52423  27.217  37.222  52.405
60500W        W52424   3.747  24.716  49.682
60501W        W52425  11.762  40.216  51.045
60502W        W52426   1.749  20.221  50.141
60503W        W52427  46.175  45.181  50.614
60504W        W52428  47.179  21.223  50.589
60505W        W52429   1.757  32.708  50.616
60506W        W52430  38.230  25.756  51.510
60507W        W52431  45.197  35.715  50.593
60508W        W52432  38.219  36.695  52.425
60509W        W52433   3.789  46.187  52.886
60510W        W52434   1.266   6.245  49.700
60511W        W52435   8.753  40.223  51.962
60512W        W52436  42.184  29.219  51.965
60513W        W52437  47.177  14.763  52.862
60514W        W52438  34.720  10.268  51.071
60515W        W52439  21.226  15.233  51.949
60516W        W52440  30.224   8.753  50.621
60517W        W52441  14.738  10.251  51.076
60518W        W52442  18.248   0.788  51.490
60519W        W52443  18.720   1.757  50.582
60520W        W52444  23.731  13.234  52.868
60521W        W52445  38.231  42.682  50.611
60522W        W52446   5.257  30.711  53.790
60523W        W52447  30.214  35.195  52.899
60524W        W52448  24.748   6.784  51.990
60525W        W52449  16.269  42.706  50.614
60526W        W52450   0.286   7.279  53.790
60527W        W52451  29.247  16.224  49.668
60528W        W52452   7.240  13.239  51.069
60529W        W52453  47.687  39.696  52.868
60530W        W52454  16.737   2.293  53.807
60531W        W52455  31.746  16.240  52.893
60532W        W52456  41.207  30.214  53.343
60533W        W52457  41.203  39.187  53.797
60534W        W52458   6.258   4.758  53.320
60535W        W52459   5.757   2.750  50.126
60536W        W52460  41.683  36.713  50.585
60537W        W52461  38.698  17.726  51.056
60538W        W52462  32.720  32.719  51.525
60539W        W52463  16.755   4.291  51.979
60540W        W52464  13.739  48.214  50.163
60541W        W52465  16.745   2.295  52.432
60542W        W52466  37.229  37.703  50.584
60543W        W52467  22.721  23.227  50.133
60544W        W52468  29.744  29.234  53.329
60545W        W52469  25.736  27.716  53.780
60546W        W52470   0.288  39.188  53.807
60547W        W52471  25.744  25.726  51.038
60548W        W52472  44.684  11.758  51.499
60549W        W52473  43.182  15.726  52.867
60550W        W52474  28.712  16.242  51.498
60551W        W52475  30.746  33.201  51.531
60552W        W52476  11.753   9.753  51.960
60553W        W52477  42.210   9.768  49.708
60554W        W52478  39.705   0.769  50.619
60555W        W52479   4.749  15.760  52.899
60556W        W52480  34.722  31.725  51.527
60557W        W52481  33.206  22.248  50.591
60558W        W52482  23.757  22.760  53.780
60559W        W52483  12.238  28.703  51.965
60560W        W52484  46.204  38.705  51.985
60561W        W52485  27.749  32.215  49.675
60562W        W52486  27.721  24.259  49.697
60563W        W52487   3.752  43.212  51.986
60564W        W52488  41.187  32.198  51.951
60565W        W52489  38.221  15.258  53.790
60566W        W52490   2.296  15.234  49.671
60567W        W52491  30.742   7.767  52.881
60568W        W52492  10.767  46.711  52.425
60569W        W52493  28.707  13.737  52.871
60570W        W52494  17.737  40.684  51.498
60571W        W52495  42.718   0.277  51.522
60572W        W52496  28.731  48.204  52.433
60573W        W52497   0.781  46.182  50.579
60574W        W52498  19.223   4.262  50.129
60575W        W52499  20.266   1.749  52.404
60576W        W52500  10.255  38.225  51.528
60577W        W52501  10.250  19.759  50.584
60578W        W52502   9.264  27.245  51.070
60579W        W52503  13.228  20.224  50.162
60580W        W52504   2.259  41.717  50.614
60581W        W52505  42.189  12.276  53.317
60582W        W52506  23.232  28.734  51.949
60583W        W52507  39.703  13.750  51.506
60584W        W52508   1.294  29.712  51.079
60585W        W52509   2.762  15.232  50.139
60586W        W52510  37.703  16.271  52.426
60587W        W52511  17.269  21.737  52.436
60588W        W52512   6.755  11.255  53.773
60589W        W52513   1.759  11.250  52.902
60590W        W52514  28.740   3.294  49.703
60591W        W52515  25.219  20.242  53.347
60592W        W52516  39.229  24.228  52.902
60593W        W52517  28.718  24.729  51.066
60594W        W52518  14.274  16.252  52.425
60595W        W52519   4.778  10.282  51.523
60596W        W52520  37.691  42.711  51.966
60597W        W52521  21.723  30.725  49.701
60598W        W52522  15.262  30.739  53.361
60599W        W52523  41.192  17.228  53.800
60600W        W52524  11.744   2.272  52.872
60601W        W52525  46.186  39.217  49.664
60602W        W52526  43.191   3.760  53.335
60603W        W52527  45.181   9.775  53.773
60604W        W52528   9.272  37.211  51.062
60605W        W52529  10.773   3.746  53.814
60606W        W52530   6.268  27.750  51.055
60607W        W52531  40.201  44.696  51.515
60608W        W52532  31.715  11.767  53.789
60609W        W52533  27.249  37.203  51.949
60610W        W52534  44.717  12.773  51.517
60611W        W52535  26.712  39.209  53.335
60612W        W52536  33.219   1.785  49.668
60613W        W52537  28.212   2.296  53.337
60614W        W52538   0.271  35.214  51.041
60615W        W52539   8.773  42.729  51.977
60616W        W52540   6.267  15.227  51.514
60617W        W52541  14.271  34.709  50.146
60618W        W52542  23.711   8.739  51.513
60619W        W52543   2.746  45.185  53.797
60620W        W52544  34.719  22.759  49.682
60621W        W52545   2.768   4.779  52.408
60622W        W52546  31.698  44.204  52.876
60623W        W52547   8.282  16.761  51.947
60624W        W52548  32.731   7.750  52.884
60625W        W52549  29.219  38.208  51.950
60626W        W52550   6.751   4.289  51.532
60627W        W52551  43.701  33.744  50.147
60628W        W52552   7.773  19.259  50.136
60629W        W52553  26.732  27.229  50.617
60630W        W52554   0.793   6.248  51.974
60631W        W52555   8.751  34.234  51.042
60632W        W52556   2.748  21.743  49.695
60633W        W52557  18.723  17.232  51.503
60634W        W52558  43.692   3.783  52.410
60635W        W52559  46.697  31.244  53.815
60636W        W52560  41.205  35.721  52.436
60637W        W52561  35.232  29.741  51.049
60638W        W52562  25.257  17.764  51.531
60639W        W52563  47.217   6.282  49.665
60640W        W52564  33.243  12.737  49.670
60641W        W52565   5.285  29.219  51.503
60642W        W52566  34.223  44.188  52.870
60643W        W52567  30.203  14.250  52.897
60644W        W52568  46.221   2.791  53.773
60645W        W52569  41.730  16.245  51.047
60646W        W52570  10.249  42.706  51.495
60647W        W52571  25.725  41.691  51.054
60648W        W52572  35.734  28.207  51.078
60649W        W52573  11.745  32.236  51.069
60650W        W52574  13.740  30.202  50.596
60651W        W52575   8.274  18.264  51.044
60652W        W52576   7.780  15.237  50.151
60653W        W52577  28.714  32.231  53.337
60654W        W52578  21.236  34.720  53.319
60655W        W52579  12.259  36.719  53.345
60656W        W52580  26.240  24.247  52.905
60657W        W52581  34.210  25.742  51.511
60658W        W52582  22.755  33.720  51.061
60659W        W52583  33.209  45.699  53.798
60660W        W52584  16.272  37.217  51.071
60661W        W52585  41.222  11.267  52.881
60662W        W52586   1.274  25.230  50.606
60663W        W52587   7.285  15.730  50.614
60664W        W52588  22.726  33.212  52.412
60665W        W52589  44.691  31.201  52.870
60666W        W52590  23.234  29.236  51.500
60667W        W52591  14.768   0.267  50.579
60668W        W52592  29.750  25.734  53.320
60669W        W52593  36.230  16.730  52.885
60670W        W52594  44.718   1.764  51.078
60671W        W52595  27.717  28.711  52.424
60672W        W52596   8.273  34.728  51.987
60673W        W52597  29.724  21.725  52.868
60674W        W52598  36.691   1.749  51.949
60675W        W52599  23.252  32.710  49.708
60676W        W52600   0.299  33.231  53.344
60677W        W52601  42.686  28.733  49.698
60678W        W52602  20.236  39.705  51.519
60679W        W52603   8.767  37.688  51.044
60680W        W52604  10.779  25.754  51.533
60681W        W52605  38.216  41.713  51.495
60682W        W52606  30.208  29.718  51.960
60683W        W52607  32.225   3.760  52.897
60684W        W52608  38.687  46.718  51.518
60685W        W52609   0.278  46.697  51.961
60686W        W52610   4.759  32.232  51.518
60687W        W52611  17.755  35.697  50.123
60688W        W52612   0.258   3.756  50.592
60689W        W52613  47.682   7.764  52.864
60690W        W52614  36.227  16.729  51.520
60691W        W52615  11.754  36.728  49.707
60692W        W52616  24.721   5.785  50.598
60693W        W52617   3.293  22.725  51.498
60694W        W52618  36.705  35.220  51.493
60695W        W52619   0.292   5.268  51.509
60696W        W52620  27.236  19.762  50.591
60697W        W52621   8.285   5.251  52.431
60698W        W52622   7.278  34.196  51.517
60699W        W52623   2.285  13.265  52.410
60700W        W52624  48.193  11.735  50.586
60701W        W52625  23.238  38.236  50.132
60702W        W52626  47.703  21.224  53.803
60703W        W52627  11.762  40.720  50.610
60704W        W52628  47.194  13.751  52.416
60705W        W52629  17.723  26.710  51.497
60706W        W52630   0.765  34.696  51.500
60707W        W52631  13.273  42.229  52.407
60708W        W52632  14.236  33.198  52.446
60709W        W52633  28.217  23.227  50.621
60710W        W52634  38.215  20.231  50.124
60711W        W52635  38.196  44.197  52.878
60712W        W52636  40.724  31.720  51.041
60713W        W52637  37.238  23.240  52.868
60714W        W52638  27.738  39.687  52.410
60715W        W52639  31.221   3.775  50.135
60716W        W52640   9.267  40.232  52.415
60717W        W52641  24.256  37.234  51.963
60718W        W52642  42.218   4.245  53.345
60719W        W52643  17.742  22.232  51.072
60720W        W52644  45.692  16.755  50.620
60721W        W52645  35.731  27.228  51.987
60722W        W52646  25.724  46.705  53.782
60723W        W52647  16.244  12.777  52.412
60724W        W52648  37.731  42.689  52.860
60725W        W52649   3.747   8.264  50.620
60726W        W52650  14.738   7.258  52.868
60727W        W52651  36.233  12.252  51.983
60728W        W52652  14.260  36.694  51.503
60729W        W52653  26.729  47.694  53.777
60730W        W52654  44.706  19.761  52.860
60731W        W52655  44.199  48.193  53.803
60732W        W52656  12.748   0.285  51.982
60733W        W52657  40.711  27.705  49.681
60734W        W52658  46.177  14.251  53.340
60735W        W52659  47.698   1.767  50.605
60736W        W52660  24.258  47.196  52.869
60737W        W52661  13.733  46.680  51.036
60738W        W52662   8.262  10.779  53.319
60739W        W52663  29.220  20.226  51.058
60740W        W52664  18.261  47.688  50.166
60741W        W52665   9.775  39.731  52.412
60742W        W52666  43.693   5.754  53.330
60743W        W52667  23.234  35.222  50.149
60744W        W52668  15.746  39.689  50.580
60745W        W52669  28.749  46.181  52.412
60746W        W52670   2.793  35.236  51.963
60747W        W52671  28.727  13.765  53.810
60748W        W52672   7.784  25.727  52.419
60749W        W52673  12.733   1.757  51.526
60750W        W52674  12.237  30.211  49.665
60751W        W52675   0.276   0.774  50.148
60752W        W52676  13.747  19.742  51.531
60753W        W52677  27.239   5.256  51.990
60754W        W52678   8.240  23.261  50.156
60755W        W52679   0.286  29.251  51.517
60756W        W52680  33.235  11.746  53.330
60757W        W52681  38.724  13.774  50.593
60758W        W52682  16.236   6.747  49.688
60759W        W52683  27.220  37.195  53.778
60760W        W52684  42.683  40.226  52.893
60761W        W52685  13.252   6.275  52.420
60762W        W52686  24.218   4.780  52.428
60763W        W52687  41.183  14.260  53.791
60764W        W52688  32.245  16.273  50.129
60765W        W52689  11.773  35.702  51.984
60766W        W52690   0.281   6.283  52.899
60767W        W52691  41.728  34.212  51.958
60768W        W52692  38.197  17.235  50.162
60769W        W52693  40.187  37.192  49.698
60770W        W52694  44.186  21.227  51.044
60771W        W52695  37.212   0.258  50.586
60772W        W52696  26.750   2.268  52.894
60773W        W52697   5.257  17.225  49.682
60774W        W52698  22.731  37.225  53.787
60775W        W52699  10.280  44.178  50.158
60776W        W52700   5.255  19.728  53.779
60777W        W52701  24.234  25.737  51.509
60778W        W52702  45.676  20.731  52.895
60779W        W52703  18.722  32.245  51.522
60780W        W52704  29.241  30.711  49.700
60781W        W52705  29.209  23.242  53.805
60782W        W52706  19.735  44.716  50.591
60783W        W52707   9.277  29.718  51.494
60784W        W52708   5.248  37.725  53.360
60785W        W52709  24.744  21.257  53.806
60786W        W52710  10.274  47.709  52.425
60787W        W52711  24.721  28.728  52.409
60788W        W52712  44.221  26.719  49.679
60789W        W52713  14.230  27.226  52.405
60790W        W52714  44.703  14.761  50.154
60791W        W52715  33.223  32.730  53.342
60792W        W52716  41.700   6.770  53.809
60793W        W52717   9.739  16.271  51.058
60794W        W52718  41.682  18.751  52.418
60795W        W52719   4.250  29.707  51.947
60796W        W52720  18.246   6.759  52.869
60797W        W52721  11.276  48.192  53.790
60798W        W52722  29.235  47.713  52.888
60799W        W52723  20.265   7.773  53.360
60800W        W52724  31.220  46.212  53.773
60801W        W52725  16.753  40.686  50.122
60802W        W52726  38.211  11.763  49.669
60803W        W52727   8.757  46.200  53.801
60804W        W52728  26.249   8.751  51.971
60805W        W52729  42.218  45.206  52.895
60806W        W52730  38.728  47.198  51.522
60807W        W52731  34.234  15.732  51.946
60808W        W52732  47.183  26.732  53.344
60809W        W52733  27.722  29.738  50.609
60810W        W52734  14.244   7.255  50.606
60811W        W52735  19.254  30.213  51.040
60812W        W52736  42.226  18.255  51.053
60813W        W52737   6.744  22.748  53.350
60814W        W52738  22.248  37.211  51.492
60815W        W52739   5.286  15.728  53.325
60816W        W52740  14.736  19.224  53.805
60817W        W52741  26.735  46.213  53.792
60818W        W52742  23.222  23.236  53.798
60819W        W52743  33.211  30.719  51.527
60820W        W52744  17.724  20.717  53.322
60821W        W52745   1.773   3.246  51.975
60822W        W52746  37.726  37.704  50.582
60823W        W52747  24.723  25.734  50.158
60824W        W52748  45.714  43.699  53.794
60825W        W52749  37.190  16.256  52.421
60826W        W52750   2.764  45.704  53.794
60827W        W52751  35.733  33.223  53.817
60828W        W52752  37.229  19.251  50.592
60829W        W52753   3.758  32.240  52.403
60830W        W52754  32.704   4.743  51.526
60831W        W52755  37.709   1.765  50.608
60832W        W52756  29.728  24.734  52.440
60833W        W52757  24.724   5.261  52.874
60834W        W52758  23.716  45.679  50.609
60835W        W52759  45.202  44.200  49.705
60836W        W52760  25.211  14.258  50.163
60837W        W52761   7.242  40.213  50.130
60838W        W52762  24.716   5.287  53.333
60839W        W52763  45.718  31.716  51.529
60840W        W52764  43.681   6.286  53.349
60841W        W52765  28.730  23.728  51.979
60842W        W52766  40.222  25.752  53.777
60843W        W52767  34.228  13.256  52.441
60844W        W52768  30.735  27.228  51.503
60845W        W52769  37.201  43.720  53.777
60846W        W52770   8.240   9.247  51.985
60847W        W52771  16.264  16.266  50.599
60848W        W52772  28.225   3.258  51.048
60849W        W52773  22.740   9.258  50.609
60850W        W52774  32.212  12.759  53.805
60851W        W52775  36.223  20.217  50.131
60852W        W52776  33.195   6.248  51.077
60853W        W52777  25.729  10.735  51.507
60854W        W52778  31.229  34.230  50.139
60855W        W52779   5.260  39.720  53.813
60856W        W52780  35.241  36.218  51.973
60857W        W52781   1.758   1.259  51.991
60858W        W52782  35.714  15.763  52.424
60859W        W52783   9.262   8.773  50.583
60860W        W52784   0.782  11.273  49.698
60861W        W52785  34.727  34.714  52.871
60862W        W52786  42.705  24.228  52.879
60863W        W52787  42.698  27.753  52.419
60864W        W52788  10.748  23.759  52.403
60865W        W52789  41.189  24.725  53.779
60866W        W52790  44.190  13.728  53.360
60867W        W52791   8.780   7.286  51.962
60868W        W52792  21.741  28.749  49.675
60869W        W52793  29.249  19.747  51.955
60870W        W52794  10.772  40.690  53.322
60871W        W52795   8.765  11.758  53.790
60872W        W52796  41.185  44.191  53.342
60873W        W52797  14.748  31.699  50.150
60874W        W52798  34.239  47.673  49.691
60875W        W52799   7.258  34.210  53.360
60876W        W52800   1.749  26.752  50.155
60877W        W52801   0.289  45.195  50.163
60878W        W52802  45.687   8.774  50.141
60879W        W52803  30.238  17.738  52.895
60880W        W52804  25.240  30.214  53.773
60881W        W52805  44.680  17.752  51.043
60882W        W52806  11.778  18.753  53.324
60883W        W52807  35.198   4.763  52.407
60884W        W52808  47.211  11.742  52.900
60885W        W52809  26.754  33.242  53.341
60886W        W52810  10.266  17.756  50.622
60887W        W52811  22.262  19.749  52.875
60888W        W52812   2.286  48.184  51.950
60889W        W52813  36.699  27.725  51.507
60890W        W52814  24.228   8.241  52.431
60891W        W52815  36.200  45.682  53.804
60892W        W52816  42.682   2.784  53.772
60893W        W52817   9.271  14.751  53.789
60894W        W52818  34.238  24.242  50.134
60895W        W52819  23.753  31.226  52.888
60896W        W52820  42.202   7.285  52.860
60897W        W52821  16.272  16.251  53.342
60898W        W52822  24.251  44.181  50.608
60899W        W52823  39.707  15.742  51.078
60900W        W52824  39.703  36.206  51.955
60901W        W52825  11.238  21.232  52.871
60902W        W52826  30.203  17.763  49.703
60903W        W52827  14.247   2.286  52.430
60904W        W52828  40.206  37.694  53.347
60905W        W52829   1.760  34.237  51.946
60906W        W52830  22.738   6.265  52.876
60907W        W52831  44.199  40.709  53.799
60908W        W52832   2.770   1.755  52.860
60909W        W52833  20.761   3.291  50.147
60910W        W52834  15.769  47.175  50.153
60911W        W52835  19.741  42.211  53.799
60912W        W52836   9.265  31.704  51.496
60913W        W52837   9.743   5.243  50.153
60914W        W52838  26.221  44.693  51.951
60915W        W52839  18.751   1.263  51.957
60916W        W52840  15.769  36.190  52.435
60917W        W52841  38.228  15.747  50.121
60918W        W52842  16.263   0.753  52.885
60919W        W52843   9.263  28.215  51.500
60920W        W52844  43.693  34.209  53.807
60921W        W52845  47.713   0.274  49.684
60922W        W52846  31.243   2.772  50.164
60923W        W52847  35.717  44.701  51.492
60924W        W52848  39.220  46.673  51.049
60925W        W52849  24.227  16.762  53.351
60926W        W52850  29.729   0.750  51.991
60927W        W52851  37.711  29.231  50.589
60928W        W52852  23.234  29.729  52.417
60929W        W52853  41.720  30.202  52.889
60930W        W52854  40.196  37.723  51.532
60931W        W52855  19.727  34.233  51.493
60932W        W52856  22.229  19.733  51.953
60933W        W52857  43.218  28.743  50.133
60934W        W52858  21.217  47.719  52.876
60935W        W52859  34.209  42.230  51.049
60936W        W52860   7.769  14.736  51.983
60937W        W52861  18.728   3.254  51.531
60938W        W52862  18.233  12.776  49.697
60939W        W52863  34.226  19.242  52.877
60940W        W52864  16.264  26.224  50.612
60941W        W52865  31.242  23.213  53.786
60942W        W52866  11.261  44.207  50.155
60943W        W52867  44.180  30.731  52.891
60944W        W52868  48.211  33.233  49.679
60945W        W52869  25.233  26.725  53.361
60946W        W52870  30.740  22.250  53.322
60947W        W52871   4.289   6.270  52.877
60948W        W52872   3.274  46.214  51.067
60949W        W52873  31.200  40.695  51.051
60950W        W52874  22.228  27.710  49.675
60951W        W52875  26.234  27.218  49.701
60952W        W52876  18.731  46.205  51.519
60953W        W52877  18.724   9.279  52.897
60954W        W52878  16.237  39.714  52.415
60955W        W52879  17.248  39.224  53.328
60956W        W52880   4.786   4.249  49.691
60957W        W52881   1.755  14.254  49.708
60958W        W52882  11.258  42.685  51.070
60959W        W52883   0.268  35.738  52.884
60960W        W52884   3.290  10.775  51.533
60961W        W52885   7.777  10.779  53.791
60962W        W52886   5.742  32.705  50.583
60963W        W52887  34.733  42.222  51.505
60964W        W52888  16.745  23.216  52.417
60965W        W52889  35.715  19.745  53.331
60966W        W52890  24.250   7.752  49.700
60967W        W52891  28.211   5.786  51.051
60968W        W52892  15.241   8.285  51.948
60969W        W52893  32.743  25.226  53.789
60970W        W52894  43.206   7.274  51.960
60971W        W52895  31.736  15.236  51.527
60972W        W52896  43.706  19.249  50.588
60973W        W52897  22.250  41.728  50.616
60974W        W52898  11.735  33.202  53.795
60975W        W52899   8.749   8.240  53.815
60976W        W52900  32.700   5.751  51.068
60977W        W52901  37.694  27.228  52.880
60978W        W52902  33.704  44.708  51.951
60979W        W52903   4.759  35.230  53.328
60980W        W52904  39.685   0.254  52.891
60981W        W52905   7.758  32.211  53.322
60982W        W52906  31.203  21.744  53.342
60983W        W52907  13.773   9.245  51.036
60984W        W52908   5.283  48.200  50.581
60985W        W52909  40.200  23.214  51.047
60986W        W52910  44.218  42.694  51.059
60987W        W52911  16.741  29.226  53.801
60988W        W52912  20.229  32.210  53.798
60989W        W52913  17.765  16.237  51.954
60990W        W52914  29.213  37.229  52.868
60991W        W52915  46.687  37.695  52.896
60992W        W52916  43.210  14.747  49.678
60993W        W52917  25.246  18.767  50.121
60994W        W52918   6.744  25.736  53.776
60995W        W52919  18.239   9.248  53.330
60996W        W52920   8.781  22.726  53.788
60997W        W52921  22.755  33.232  53.358
60998W        W52922  17.266  18.232  51.532
60999W        W52923  22.733  13.251  53.811
61000W        W52924   0.258  12.262  51.078
61001W        W52925  39.722   5.243  53.319
61002W        W52926  28.741  43.720  52.903
61003W        W52927  27.254  25.255  53.801
61004W        W52928  19.223  36.731  49.692
61005W        W52929   0.296  10.234  49.666
61006W        W52930  42.686  43.205  52.883
61007W        W52931  23.259   3.272  50.134
61008W        W52932  10.781  12.261  52.432
61009W        W52933  34.231  29.740  51.497
61010W        W52934   6.257  23.216  50.588
61011W        W52935  35.718  38.222  52.437
61012W        W52936  34.208  34.218  52.445
61013W        W52937  29.222  15.250  50.149
61014W        W52938  43.227  17.764  51.987
61015W        W52939  29.238   9.774  50.599
61016W        W52940  33.233  12.267  53.783
61017W        W52941   1.271  36.692  52.403
61018W        W52942   0.784  14.746  51.512
61019W        W52943  16.729  27.246  51.492
61020W        W52944  29.213   2.266  51.987
61021W        W52945  34.216  44.692  53.786
61022W        W52946  42.229  32.718  53.317
61023W        W52947  20.222  32.231  51.491
61024W        W52948  14.749  38.707  52.895
61025W        W52949  14.257  23.760  53.813
61026W        W52950  43.700  27.252  49.689
61027W        W52951  36.702  24.233  50.583
61028W        W52952  21.725  28.707  52.879
61029W        W52953  28.703  41.202  53.801
61030W        W52954  19.721   3.764  52.418
61031W        W52955  12.237   7.752  51.046
61032W        W52956  31.243   3.281  53.780
61033W        W52957  10.269  32.725  53.344
61034W        W52958   3.263  46.183  53.350
61035W        W52959  10.246  36.227  53.794
61036W        W52960   5.780  20.265  51.971
61037W        W52961  37.690  35.738  49.695
61038W        W52962   1.253  46.182  52.902
61039W        W52963  31.230   1.756  53.317
61040W        W52964  14.274  19.762  52.864
61041W        W52965  35.193   9.742  51.516
61042W        W52966   5.286  46.692  49.672
61043W        W52967  31.230  39.714  52.442
61044W        W52968   4.270  39.698  53.334
61045W        W52969   9.281  12.729  52.875
61046W        W52970  21.750  47.191  49.680
61047W        W52971  37.227   3.259  52.869
61048W        W52972  36.724  42.216  50.577
61049W        W52973  46.213   9.745  53.798
61050W        W52974  33.719  24.719  53.786
61051W        W52975  21.248  45.685  51.529
61052W        W52976   2.767  33.243  50.597
61053W        W52977  40.224   3.760  50.587
61054W        W52978  36.199  24.222  51.963
61055W        W52979  33.743  16.740  52.885
61056W        W52980   0.768  36.232  51.949
61057W        W52981  35.717  46.709  52.447
61058W        W52982  19.227  20.254  51.059
61059W        W52983  18.268  18.251  51.038
61060W        W52984  33.709  41.711  53.790
61061W        W52985  20.753   0.756  49.707
61062W        W52986   6.252  35.236  51.979
61063W        W52987  30.740  47.692  52.421
61064W        W52988   9.279   9.238  52.428
61065W        W52989  43.719  32.717  50.143
61066W        W52990   2.789  12.243  52.434
61067W        W52991  48.203   4.790  52.902
61068W        W52992   9.745  26.737  49.671
61069W        W52993  39.219   7.761  50.143
61070W        W52994  23.239  13.234  49.701
61071W        W52995   9.242  10.281  53.789
61072W        W52996  21.749   7.254  52.896
61073W        W52997  42.701  12.754  49.670
61074W        W52998   4.792  23.735  52.427
61075W        W52999   5.264  16.752  49.708
61076W        W53000  38.694  48.193  50.578
61077W        W53001   3.267   4.271  51.961
61078W        W53002  18.253  22.218  51.055
61079W        W53003  45.695   6.772  49.709
61080W        W53004   0.273   8.780  53.802
61081W        W53005  27.738  44.703  50.606
61082W        W53006  16.736  20.223  52.423
61083W        W53007  36.236   9.780  51.975
61084W        W53008  31.703  20.222  51.525
61085W        W53009   9.755  43.215  51.967
61086W        W53010   6.742  48.211  51.052
61087W        W53011  42.217  42.724  51.523
61088W        W53012  24.243   1.781  49.670
61089W        W53013  13.270  35.703  52.431
61090W        W53014   3.271   8.739  50.591
61091W        W53015  39.722  18.728  50.578
61092W        W53016  28.244  28.240  51.534
61093W        W53017   1.787  30.739  53.345
61094W        W53018  17.236  14.237  53.330
61095W        W53019  30.717  20.227  50.140
61096W        W53020  34.709  19.719  53.343
61097W        W53021  11.743  45.211  52.893
61098W        W53022   7.247  31.704  51.977
61099W        W53023  29.712  13.751  50.151
61100W        W53024  31.715  43.217  52.423
61101W        W53025   4.746   6.243  50.620
61102W        W53026   7.786  22.223  49.677
61103W        W53027  34.719  46.691  49.686
61104W        W53028   5.251  14.765  51.983
61105W        W53029  12.776  11.237  50.619
61106W        W53030  45.221   1.796  51.965
61107W        W53031   3.249  37.214  52.890
61108W        W53032  34.221  18.224  51.060
61109W        W53033   7.286   9.760  49.672
61110W        W53034  36.708  40.720  50.139
61111W        W53035  41.714  41.229  50.622
61112W        W53036  24.758  34.211  53.785
61113W        W53037  35.203  14.270  51.513
61114W        W53038  47.207  13.268  49.681
61115W        W53039  47.708   9.265  50.141
61116W        W53040  19.754  37.217  52.417
61117W        W53041  34.716  47.689  53.784
61118W        W53042  28.727  40.233  50.591
61119W        W53043  33.735  23.723  52.892
61120W        W53044  34.735  42.683  53.351
61121W        W53045  18.245  28.253  51.063
61122W        W53046  24.720   5.263  52.419
61123W        W53047   8.780   7.281  49.689
61124W        W53048  41.705  38.217  50.602
61125W        W53049  18.235   6.268  53.779
61126W        W53050   8.267  42.204  50.612
61127W        W53051  23.723   1.261  49.700
61128W        W53052  39.205  36.691  53.814
61129W        W53053  32.740  22.737  51.498
61130W        W53054  34.232  25.743  52.866
61131W        W53055  46.197  33.705  51.516
61132W        W53056  27.238  25.736  50.159
61133W        W53057  48.189  33.739  49.666
61134W        W53058  14.759  46.689  53.783
61135W        W53059  37.234  43.692  50.593
61136W        W53060   6.765   4.288  52.429
61137W        W53061  30.748  44.218  51.991
61138W        W53062  18.242   6.744  52.412
61139W        W53063  36.724  23.754  51.514
61140W        W53064  22.249  18.253  52.419
61141W        W53065  21.261  32.225  52.874
61142W        W53066  36.212   7.781  53.784
61143W        W53067  19.233  16.253  53.814
61144W        W53068  13.266  39.694  53.325
61145W        W53069  26.749   3.287  53.341
61146W        W53070  22.713  15.754  52.888
61147W        W53071  40.223  19.746  53.329
61148W        W53072  11.263  12.766  50.155
61149W        W53073  17.723  18.722  51.973
61150W        W53074  24.751  23.254  52.425
61151W        W53075  19.243  16.267  51.974
61152W        W53076  37.238  19.740  52.448
61153W        W53077  30.731  14.761  51.040
61154W        W53078  47.677  35.241  49.701
61155W        W53079  26.256  25.722  52.422
61156W        W53080  28.739  29.719  52.410
61157W        W53081  45.198  34.709  51.958
61158W        W53082   9.772  33.199  53.320
61159W        W53083  10.758  15.756  51.964
61160W        W53084  21.252  14.274  51.063
61161W        W53085  22.751  12.269  51.502
61162W        W53086   8.777  45.685  53.785
61163W        W53087   0.291  13.249  52.431
61164W        W53088  36.230  33.723  50.128
61165W        W53089  37.198  47.179  53.797
61166W        W53090  17.271   6.276  51.958
61167W        W53091  30.741   6.747  53.348
61168W        W53092  30.725  29.216  51.518
61169W        W53093  15.742  20.750  50.620
61170W        W53094  42.726  32.202  53.322
61171W        W53095   2.752  27.744  51.518
61172W        W53096  46.710  44.180  53.788
61173W        W53097  36.232  31.229  53.319
61174W        W53098  30.723  13.753  51.043
61175W        W53099  19.767  11.274  52.436
61176W        W53100  44.207   4.750  49.695
61177W        W53101  13.254  24.213  50.595
61178W        W53102  10.245  28.207  50.133
61179W        W53103  46.716  36.195  50.123
61180W        W53104  35.722   9.280  53.318
61181W        W53105  30.731  46.215  49.696
61182W        W53106  12.751  40.215  50.131
61183W        W53107  23.261  38.696  51.502
61184W        W53108  25.233  38.198  52.438
61185W        W53109  29.211  31.220  53.339
61186W        W53110  17.756  42.221  52.860
61187W        W53111  16.242  35.212  50.613
61188W        W53112   9.261   3.274  49.687
61189W        W53113  12.753  13.276  50.590
61190W        W53114  26.745  43.680  50.595
61191W        W53115   0.765  46.688  52.441
61192W        W53116  39.700  42.210  52.412
61193W        W53117  34.697  24.739  50.133
61194W        W53118   0.778  44.695  51.530
61195W        W53119  39.203  20.765  53.334
61196W        W53120  12.260  22.755  52.403
61197W        W53121   6.750  46.186  50.588
61198W        W53122  21.254  41.183  50.146
61199W        W53123  36.200  28.224  53.327
61200W        W53124  17.721  34.720  50.127
61201W        W53125  46.693   4.748  50.137
61202W        W53126  11.235  15.764  51.069
61203W        W53127  19.742  44.200  51.962
61204W        W53128  11.250  25.219  49.686
61205W        W53129  44.678   7.738  50.597
61206W        W53130  33.704  27.746  53.329
61207W        W53131  23.751  15.231  49.701
61208W        W53132  32.239   3.774  49.687
61209W        W53133  34.693   6.774  51.491
61210W        W53134   4.782  11.739  51.049
61211W        W53135  21.718  25.721  53.348
61212W        W53136  10.738  15.261  50.155
61213W        W53137  12.739  12.736  53.325
61214W        W53138  29.711  23.240  50.164
61215W        W53139   3.284  44.196  51.972
61216W        W53140  16.247  17.746  50.589
61217W        W53141  45.695  47.683  51.532
61218W        W53142  15.748  14.268  50.622
61219W        W53143  22.760   1.761  50.587
61220W        W53144   7.742  38.697  52.409
61221W        W53145  36.706  22.221  50.153
61222W        W53146  23.747  27.227  51.505
61223W        W53147  48.184  27.740  52.448
61224W        W53148   4.777  34.212  52.443
61225W        W53149  29.247  40.186  49.701
61226W        W53150  23.727  40.705  52.898
61227W        W53151   9.247  46.708  52.434
61228W        W53152  27.253  27.205  53.347
61229W        W53153  42.681  40.212  50.613
61230W        W53154  47.204  16.251  52.421
61231W        W53155  27.748   5.747  51.535
61232W        W53156  46.684  41.713  53.781
61233W        W53157  43.220  42.210  51.060
61234W        W53158   6.761  47.699  50.591
61235W        W53159  35.195  35.714  52.418
61236W        W53160  11.740  19.253  49.666
61237W        W53161  45.723  42.692  51.976
61238W        W53162  35.201  37.195  50.163
61239W        W53163   0.258  13.736  51.978
61240W        W53164  15.263   3.257  50.137
61241W        W53165  19.264  31.733  53.785
61242W        W53166  25.255  46.707  52.430
61243W        W53167   2.768  34.235  51.042
61244W        W53168  10.268  41.694  51.975
61245W        W53169  32.721  17.726  51.958
61246W        W53170  34.211  39.227  52.434
61247W        W53171   6.287  33.236  51.957
61248W        W53172  16.264   3.786  51.042
61249W        W53173   1.248  20.743  53.346
61250W        W53174  21.216  14.726  51.990
61251W        W53175   0.767  38.212  50.582
61252W        W53176   8.779  27.711  50.162
61253W        W53177  32.736  25.724  53.789
61254W        W53178  12.231  25.256  53.796
61255W        W53179   5.771  30.749  53.326
61256W        W53180  43.685   8.264  53.808
61257W        W53181  18.246   7.238  50.605
61258W        W53182   6.756  25.746  52.871
61259W        W53183  46.190  41.204  51.955
61260W        W53184  11.742  17.755  49.667
61261W        W53185  33.737  22.253  51.972
61262W        W53186  40.700  38.713  50.618
61263W        W53187  41.199  37.189  49.704
61264W        W53188  40.200  29.203  52.868
61265W        W53189   9.772  48.181  53.317
61266W        W53190  36.205  14.775  51.947
61267W        W53191   3.268  15.727  51.494
61268W        W53192  34.713  29.739  50.141
61269W        W53193  19.735  33.730  49.676
61270W        W53194  39.191  29.208  49.695
61271W        W53195  18.231  27.750  51.521
61272W        W53196  16.771  31.747  50.620
61273W        W53197  33.220  25.242  50.128
61274W        W53198  19.250  29.231  52.903
61275W        W53199  43.703  30.725  53.358
61276W        W53200   7.761  26.743  53.360
61277W        W53201   4.291  40.708  49.691
61278W        W53202  44.723  18.745  53.317
61279W        W53203  26.244  13.260  52.405
61280W        W53204  40.225  39.712  50.131
61281W        W53205  48.185  42.721  51.493
61282W        W53206  40.729  19.247  53.342
61283W        W53207  32.720  24.245  50.166
61284W        W53208   9.766  30.737  51.529
61285W        W53209  26.238  45.705  50.596
61286W        W53210  24.727  38.228  53.796
61287W        W53211  11.774  31.209  53.812
61288W        W53212  14.755   1.251  53.816
61289W        W53213  35.208  29.746  50.617
61290W        W53214   3.773   3.753  51.058
61291W        W53215  45.693  27.247  51.959
61292W        W53216  48.172   3.746  49.691
61293W        W53217   8.746  11.245  49.677
61294W        W53218  32.699   5.750  52.441
61295W        W53219  43.208   1.773  53.323
61296W        W53220  39.708  17.733  49.668
61297W        W53221  36.239   0.784  53.800
61298W        W53222  32.726  46.676  50.127
61299W        W53223  16.249   5.747  52.900
61300W        W53224  22.722  23.226  52.441
61301W        W53225  44.201  35.714  52.877
61302W        W53226   4.756  27.222  50.143
61303W        W53227  33.210  37.716  52.880
61304W        W53228  12.750   7.285  51.522
61305W        W53229   1.758  29.210  53.336
61306W        W53230  40.223  39.217  51.971
61307W        W53231  40.710  11.243  52.881
61308W        W53232  48.207  41.687  51.041
61309W        W53233   4.761  32.737  51.957
61310W        W53234  23.735  32.245  52.879
61311W        W53235  25.743  38.224  53.787
61312W        W53236  34.720  45.707  52.862
61313W        W53237  28.208  38.706  53.324
61314W        W53238  33.723  39.226  49.699
61315W        W53239  33.698  39.214  51.079
61316W        W53240  47.197  17.732  52.883
61317W        W53241  27.728  18.269  49.676
61318W        W53242  47.175  10.734  52.886
61319W        W53243   0.278   2.274  51.529
61320W        W53244  37.217   5.272  50.158
61321W        W53245  11.760  27.217  50.598
61322W        W53246   7.751  24.742  49.707
61323W        W53247  37.213  10.748  50.164
61324W        W53248  36.716  37.211  52.889
61325W        W53249  19.239   9.761  49.688
61326W        W53250  18.230  37.233  51.070
61327W        W53251  28.245   4.773  50.135
61328W        W53252   5.278   6.775  52.864
61329W        W53253  15.266   5.746  51.980
61330W        W53254  34.715   1.792  52.414
61331W        W53255   2.771  39.211  53.332
61332W        W53256  15.740  43.709  49.685
61333W        W53257  27.245  24.238  53.797
61334W        W53258  26.736  22.737  51.042
61335W        W53259  28.730  31.233  51.076
61336W        W53260  39.211  30.736  53.327
61337W        W53261  47.217  18.745  51.515
61338W        W53262  11.765  20.762  50.617
61339W        W53263  22.261   2.777  51.950
61340W        W53264  31.212  11.235  51.959
61341W        W53265  22.243  22.235  49.669
61342W        W53266  43.693  34.727  50.143
61343W        W53267  44.180  31.222  52.889
61344W        W53268  24.227  32.225  49.680
61345W        W53269   7.276  23.736  52.895
61346W        W53270  23.237  36.206  51.525
61347W        W53271  35.198   9.740  53.339
61348W        W53272   1.264  14.262  50.165
61349W        W53273  12.259  34.240  51.535
61350W        W53274   0.298  40.705  50.614
61351W        W53275  15.725  25.234  51.041
61352W        W53276  40.212  14.234  51.948
61353W        W53277  44.681   1.278  50.602
61354W        W53278  18.736  16.759  53.777
61355W        W53279  13.230   8.751  50.587
61356W        W53280  30.736  20.222  49.666
61357W        W53281  16.759   6.747  52.868
61358W        W53282  13.757  38.717  50.157
61359W        W53283  22.229   9.764  51.524
61360W        W53284  44.703  39.190  52.872
61361W        W53285  26.254  11.237  53.791
61362W        W53286   5.272  39.206  49.687
61363W        W53287  29.217  44.698  51.507
61364W        W53288   9.264   9.281  51.077
61365W        W53289  34.720  32.701  50.622
61366W        W53290  29.238   1.761  49.709
61367W        W53291  16.749  44.681  53.793
61368W        W53292  45.705  48.209  50.589
61369W        W53293  47.193  34.728  53.783
61370W        W53294  21.762  28.715  52.425
61371W        W53295   8.748  32.239  51.981
61372W        W53296  19.747  43.188  52.448
61373W        W53297  12.768  42.693  50.158
61374W        W53298  16.260  24.724  52.867
61375W        W53299  40.184  25.752  50.578
61376W        W53300  42.199  37.734  52.442
61377W        W53301  32.217  21.761  50.613
61378W        W53302  23.261  27.226  53.814
61379W        W53303  29.722   5.762  49.673
61380W        W53304  21.762  19.728  50.610
61381W        W53305  13.754  11.745  53.814
61382W        W53306   0.299  14.239  51.965
61383W        W53307  27.736   8.261  52.868
61384W        W53308  24.738   0.269  52.868
61385W        W53309  30.216  23.755  52.877
61386W        W53310  26.216   0.797  49.698
61387W        W53311   2.779  15.252  53.805
61388W        W53312  45.678  45.707  53.334
61389W        W53313  13.254  47.185  53.782
61390W        W53314  42.182   0.771  51.947
61391W        W53315  41.230  19.237  53.355
61392W        W53316  16.727  17.265  52.883
61393W        W53317   0.276  26.721  52.430
61394W        W53318  18.735  25.227  51.058
61395W        W53319   9.252  28.240  51.961
61396W        W53320  23.758   5.251  50.123
61397W        W53321  45.688  13.746  51.051
61398W        W53322  31.229  35.730  51.988
61399W        W53323  24.247  37.210  49.694
61400W        W53324   3.257  37.224  50.131
61401W        W53325   1.255  33.703  53.359
61402W        W53326  31.240   5.259  53.798
61403W        W53327  44.678  13.254  50.617
61404W        W53328  25.257  38.702  51.068
61405W        W53329  27.747   9.252  52.444
61406W        W53330  11.237   8.752  49.708
61407W        W53331  48.184  24.254  53.348
61408W        W53332  20.761  35.230  52.405
61409W        W53333  12.754  12.252  51.970
61410W        W53334  14.272  37.190  51.062
61411W        W53335   8.744   5.762  53.774
61412W        W53336  23.250   4.771  53.809
61413W        W53337  35.212   3.762  53.330
61414W        W53338  22.257  28.226  51.076
61415W        W53339  28.229   9.750  53.321
61416W        W53340   7.783  37.191  53.787
61417W        W53341   4.758  28.220  51.533
61418W        W53342   0.280  34.696  51.519
61419W        W53343  11.244   6.271  51.079
61420W        W53344  14.260  32.208  51.496
61421W        W53345  19.748  10.257  51.056
61422W        W53346   7.248   9.238  53.801
61423W        W53347  12.241   2.283  51.068
61424W        W53348  24.251  45.205  51.054
61425W        W53349   5.765  16.769  53.788
61426W        W53350  40.213  44.699  50.611
61427W        W53351  35.713   9.766  52.882
61428W        W53352  28.230  37.209  51.523
61429W        W53353  47.719  33.731  52.436
61430W        W53354  23.231  33.711  53.778
61431W        W53355   5.786  11.745  50.619
61432W        W53356  25.254  16.249  51.534
61433W        W53357   2.269   2.784  51.950
61434W        W53358   2.778  11.742  51.044
61435W        W53359  16.234  11.735  49.675
61436W        W53360  45.219  39.232  51.953
61437W        W53361   9.741  33.221  50.126
61438W        W53362  20.748   3.771  50.127
61439W        W53363   9.241  25.211  50.151
61440W        W53364  24.246   5.741  52.869
61441W        W53365  38.686  23.252  51.983
61442W        W53366  34.222  13.236  50.617
61443W        W53367  25.753  23.212  51.060
61444W        W53368   5.288  45.683  53.774
61445W        W53369  31.722  11.234  50.582
61446W        W53370  38.210  45.211  52.409
61447W        W53371  37.219  16.224  53.783
61448W        W53372  31.209  32.237  51.034
61449W        W53373  14.275  47.173  50.594
61450W        W53374  10.775  14.736  53.817
61451W        W53375  22.740  11.750  51.503
61452W        W53376  38.711  37.737  52.899
61453W        W53377  40.726  37.221  49.666
61454W        W53378  47.200  15.256  51.491
61455W        W53379  36.224  11.255  51.060
61456W        W53380   2.264   4.771  52.874
61457W        W53381  32.199   1.274  53.343
61458W        W53382   8.240  36.706  50.581
61459W        W53383  24.725   6.262  50.156
61460W        W53384  21.723  19.744  51.079
61461W        W53385   0.776  39.195  52.443
61462W        W53386  31.224  44.194  51.499
61463W        W53387  13.246  23.241  53.320
61464W        W53388  21.728  17.755  53.340
61465W        W53389  21.220   0.788  53.773
61466W        W53390  25.726   9.282  51.526
61467W        W53391  19.226  36.205  51.524
61468W        W53392   8.771  16.264  50.140
61469W        W53393  31.708  41.703  52.882
61470W        W53394  31.225  31.209  52.441
61471W        W53395  47.706  41.709  52.424
61472W        W53396  27.742  25.755  51.515
61473W        W53397  21.747  17.225  51.044
61474W        W53398  20.241  48.217  53.319
61475W        W53399   4.790  21.755  52.861
61476W        W53400  28.720   8.273  50.124
61477W        W53401   6.244  15.750  51.500
61478W        W53402  35.722  29.745  52.418
61479W        W53403  32.205  47.674  53.328
61480W        W53404  29.221  23.716  51.065
61481W        W53405  27.752  13.241  53.319
61482W        W53406  12.260  15.772  49.688
61483W        W53407  17.227  47.693  53.785
61484W        W53408   7.271  25.213  52.863
61485W        W53409  47.204  23.738  52.868
61486W        W53410  34.708   9.272  51.976
61487W        W53411  12.764  40.210  50.613
61488W        W53412  28.206  24.719  51.074
61489W        W53413  19.231  22.749  50.144
61490W        W53414  42.729  37.197  52.411
61491W        W53415  48.174  47.187  50.598
61492W        W53416  32.721  30.202  52.416
61493W        W53417  45.708  21.230  52.885
61494W        W53418   3.749  33.710  52.868
61495W        W53419  23.739   0.271  51.533
61496W        W53420  39.215  28.710  52.408
61497W        W53421  11.740  45.208  49.675
61498W        W53422  28.707   0.792  53.801
61499W        W53423  10.258  25.735  52.878
61500W        W53424  15.748  11.239  51.959
61501W        W53425  12.278  24.249  53.329
61502W        W53426   6.760  33.231  52.892
61503W        W53427  31.714  28.216  51.969
61504W        W53428  44.694  40.219  53.328
61505W        W53429  12.254   8.263  53.800
61506W        W53430   7.284  12.252  50.607
61507W        W53431  20.753  14.765  50.584
61508W        W53432   5.247  16.769  51.496
61509W        W53433   2.794  10.244  51.498
61510W        W53434  45.185   3.746  50.604
61511W        W53435  17.256  45.692  52.882
61512W        W53436  33.728  18.732  52.411
61513W        W53437  19.766  36.692  52.434
61514W        W53438  40.730  20.718  51.071
61515W        W53439  44.206  34.698  53.798
61516W        W53440  42.717  36.710  51.503
61517W        W53441  41.211   6.765  51.988
61518W        W53442  20.736  38.188  53.340
61519W        W53443   0.286  36.722  49.678
61520W        W53444  19.245  44.191  52.904
61521W        W53445  43.724  36.709  52.864
61522W        W53446  32.197   0.767  51.952
61523W        W53447  41.706   5.248  53.357
61524W        W53448   4.283   2.792  52.425
61525W        W53449  42.228   6.750  52.413
61526W        W53450   4.265   4.750  53.320
61527W        W53451  47.706  44.216  52.903
61528W        W53452  28.250  11.771  52.904
61529W        W53453  37.190  17.253  52.414
61530W        W53454  47.677  32.715  50.126
61531W        W53455   8.260  20.263  52.899
61532W        W53456   6.245  12.276  50.615
61533W        W53457  22.234   8.763  50.156
61534W        W53458  42.700  20.744  51.954
61535W        W53459  21.743  45.214  50.601
61536W        W53460  12.736   9.756  51.041
61537W        W53461  36.209  32.742  51.523
61538W        W53462  16.261  36.716  50.128
61539W        W53463   2.784  31.236  50.163
61540W        W53464   2.280  38.212  51.984
61541W        W53465   9.280  18.223  53.335
61542W        W53466  25.731  26.749  51.950
61543W        W53467  26.247  26.225  51.065
61544W        W53468  35.721  45.681  50.165
61545W        W53469  38.197   1.780  51.965
61546W        W53470  35.709  27.252  49.668
61547W        W53471  21.254  33.713  51.952
61548W        W53472  15.237   0.259  50.585
61549W        W53473  22.745  23.731  51.072
61550W        W53474  34.722  20.750  51.534
61551W        W53475  29.209  28.214  53.794
61552W        W53476  13.250  28.732  51.058
61553W        W53477  39.723   8.757  50.144
61554W        W53478  42.701  24.745  51.066
61555W        W53479  14.275  26.745  49.676
61556W        W53480  34.230  44.214  53.345
61557W        W53481  26.210  12.272  53.355
61558W        W53482  16.752  42.185  51.523
61559W        W53483  34.728  40.201  50.145
61560W        W53484  31.731   8.750  50.587
61561W        W53485  19.249  37.698  53.325
61562W        W53486  40.697  25.736  51.983
61563W        W53487  45.219  34.707  53.356
61564W        W53488  26.220  37.727  52.437
61565W        W53489  16.261  17.244  50.141
61566W        W53490  16.749  15.233  49.684
61567W        W53491  31.245  20.220  53.795
61568W        W53492   6.745   0.753  49.685
61569W        W53493  26.213   9.760  52.895
61570W        W53494  10.246  16.260  49.693
61571W        W53495   5.266  47.696  49.689
61572W        W53496  21.231  43.701  51.523
61573W        W53497  13.763   0.268  51.502
61574W        W53498  11.268  13.229  49.705
61575W        W53499  35.705  10.268  49.683
61576W        W53500   9.281  22.762  51.958
61577W        W53501  35.238  30.701  53.357
61578W        W53502  38.736   0.273  51.954
61579W        W53503  34.706  15.751  51.510
61580W        W53504  21.254   6.264  50.163
61581W        W53505  39.734  13.735  49.693
61582W        W53506  24.221  41.213  53.801
61583W        W53507  26.229  10.780  50.151
61584W        W53508   1.779  39.696  52.896
61585W        W53509  45.220  32.735  50.158
61586W        W53510  14.763  33.202  51.525
61587W        W53511  42.190  43.211  51.524
61588W        W53512  14.767  47.692  51.057
61589W        W53513  37.700  28.241  53.335
61590W        W53514  34.726  12.767  50.150
61591W        W53515  26.207  47.672  52.416
61592W        W53516  30.718  15.260  52.410
61593W        W53517  37.216  46.219  50.130
61594W        W53518  38.228  34.241  53.789
61595W        W53519   2.777  45.189  51.948
61596W        W53520  28.243  34.232  51.495
61597W        W53521  13.242  43.227  52.882
61598W        W53522  12.280  41.692  53.334
61599W        W53523  32.243  23.733  49.703
61600W        W53524  21.252   6.269  49.679
61601W        W53525  46.690  46.220  50.587
61602W        W53526  41.708   9.749  51.973
61603W        W53527   2.274  22.730  50.617
61604W        W53528  35.226  11.758  51.982
61605W        W53529  39.731  15.725  50.151
61606W        W53530  24.236  20.717  52.884
61607W        W53531  16.266  44.179  51.501
61608W        W53532  30.726  30.203  51.044
61609W        W53533  43.223  47.705  49.666
61610W        W53534  45.204   1.754  51.526
61611W        W53535  26.708  17.727  50.607
61612W        W53536  48.219   9.764  50.131
61613W        W53537  13.755  23.728  52.417
61614W        W53538  17.226  41.684  52.413
61615W        W53539   7.269  21.263  50.617
61616W        W53540  11.275  26.211  50.594
61617W        W53541  17.250   0.286  53.801
61618W        W53542  20.247  33.199  53.817
61619W        W53543   1.796   8.767  50.603
61620W        W53544  32.705  37.729  51.040
61621W        W53545  12.776  29.745  50.166
61622W        W53546  39.220  10.263  51.073
61623W        W53547  28.224  42.202  51.060
61624W        W53548  37.724  22.241  53.359
61625W        W53549   3.275  34.707  53.803
61626W        W53550   5.245  22.754  52.443
61627W        W53551   8.236  18.248  51.947
61628W        W53552  15.731  16.267  50.128
61629W        W53553  21.760  44.189  53.348
61630W        W53554  27.753  43.727  53.357
61631W        W53555   6.241  13.249  51.520
61632W        W53556   4.247  17.229  50.121
61633W        W53557  13.758  12.251  50.139
61634W        W53558  18.258   3.282  50.581
61635W        W53559  25.243   3.752  50.166
61636W        W53560  24.710   0.281  53.783
61637W        W53561  17.746  39.235  49.682
61638W        W53562   5.246  36.212  51.056
61639W        W53563  41.712   4.790  52.896
61640W        W53564  32.200  41.685  52.877
61641W        W53565  41.700  16.760  49.709
61642W        W53566  10.248  14.251  51.518
61643W        W53567  16.757  38.690  52.893
61644W        W53568  39.718   9.745  50.126
61645W        W53569  13.240  26.251  51.063
61646W        W53570  27.717  30.208  51.515
61647W        W53571  12.774  20.259  53.328
61648W        W53572  42.186  10.276  52.444
61649W        W53573  21.220  10.264  52.878
61650W        W53574   3.760  20.747  53.355
61651W        W53575  31.706   7.786  51.041
61652W        W53576  46.699  17.255  51.527
61653W        W53577   0.291   2.775  53.354
61654W        W53578  18.723  30.240  49.674
61655W        W53579   5.276  45.185  53.779
61656W        W53580  39.216  42.199  50.124
61657W        W53581  13.273  13.741  52.411
61658W        W53582  25.244  38.698  52.418
61659W        W53583  32.243  31.239  53.333
61660W        W53584  43.201  47.188  49.686
61661W        W53585  24.737  39.206  53.788
61662W        W53586   6.763  45.199  50.144
61663W        W53587  33.228  29.740  52.879
61664W        W53588   2.773  12.263  53.345
61665W        W53589  14.228   7.743  50.577
61666W        W53590  11.734  20.719  53.340
61667W        W53591  28.714  17.769  51.961
61668W        W53592  21.728  28.216  53.803
61669W        W53593  23.749  17.266  51.977
61670W        W53594   4.291  36.236  51.060
61671W        W53595  40.231  17.251  52.895
61672W        W53596  32.242  28.226  52.430
61673W        W53597  24.738  31.224  53.325
61674W        W53598   8.271  18.764  50.595
61675W        W53599  31.199   3.757  52.883
61676W        W53600  25.214  30.735  49.696
61677W        W53601  36.739  35.228  53.799
61678W        W53602  31.208  26.730  50.601
61679W        W53603   0.765  25.239  50.158
61680W        W53604   6.747  46.714  51.533
61681W        W53605  41.685  15.247  51.055
61682W        W53606  46.681   6.742  52.892
61683W        W53607   7.282  34.731  53.788
61684W        W53608  27.218  42.213  50.604
61685W        W53609  11.251   6.256  53.782
61686W        W53610  36.703   2.762  51.071
61687W        W53611  15.748  28.250  50.145
61688W        W53612  44.182  20.722  51.043
61689W        W53613   0.265  36.213  53.817
61690W        W53614  16.267  30.708  51.047
61691W        W53615  37.221  38.688  49.671
61692W        W53616  42.708  45.700  51.063
61693W        W53617  46.673  46.707  49.703
61694W        W53618   2.291   8.239  52.886
61695W        W53619  11.259  33.235  51.527
61696W        W53620  37.697  22.743  49.668
61697W        W53621  26.250   7.744  50.126
61698W        W53622  31.712  24.219  50.144
61699W        W53623  21.226   4.258  50.620
61700W        W53624  20.229  42.682  51.490
61701W        W53625  37.227  27.231  51.958
61702W        W53626  44.707  35.218  50.122
61703W        W53627  20.746  47.676  52.868
61704W        W53628  16.230  42.726  51.052
61705W        W53629   6.260   5.772  52.446
61706W        W53630  15.743  26.754  52.873
61707W        W53631  36.239  21.264  52.878
61708W        W53632  46.189  29.250  49.678
61709W        W53633   7.277  12.770  51.514
61710W        W53634  27.222  28.204  51.066
61711W        W53635  41.184  32.233  50.165
61712W        W53636  32.712  36.219  51.054
61713W        W53637  44.218   9.751  51.524
61714W        W53638  34.735   0.260  50.593
61715W        W53639  15.248  40.194  53.801
61716W        W53640   8.280  41.720  51.047
61717W        W53641  42.190  10.743  52.887
61718W        W53642  28.726  41.688  52.897
61719W        W53643  45.177  34.218  51.511
61720W        W53644   4.249  29.715  49.701
61721W        W53645  21.735   9.272  53.793
61722W        W53646  24.738  29.247  52.872
61723W        W53647  19.231  30.702  49.708
61724W        W53648   4.271  21.744  52.901
61725W        W53649  48.216  13.274  52.421
61726W        W53650  28.207  14.765  50.605
61727W        W53651  39.710  45.177  52.883
61728W        W53652  23.229  13.772  50.144
61729W        W53653  44.717   8.737  50.621
61730W        W53654  14.232  14.754  50.590
61731W        W53655  12.759  22.230  51.988
61732W        W53656   8.736  25.247  51.079
61733W        W53657  25.257  43.188  51.979
61734W        W53658  11.732   8.763  52.447
61735W        W53659  18.746  20.238  52.898
61736W        W53660  17.246  14.743  53.330
61737W        W53661  20.256  37.695  51.068
61738W        W53662  11.771  25.713  51.049
61739W        W53663  25.227  19.732  53.778
61740W        W53664  20.741  19.241  52.439
61741W        W53665  29.202   4.253  51.075
61742W        W53666   7.282  30.205  51.502
61743W        W53667  41.687  11.733  49.702
61744W        W53668  19.237  14.751  49.704
61745W        W53669  42.188  25.225  49.680
61746W        W53670   9.258  25.725  51.976
61747W        W53671  21.261  36.722  53.318
61748W        W53672  27.712  34.235  50.136
61749W        W53673  12.236  47.704  51.050
61750W        W53674  41.221  16.227  52.861
61751W        W53675  41.699  41.708  53.352
61752W        W53676  16.745  32.233  51.991
61753W        W53677   4.751  33.699  51.049
61754W        W53678  39.688  41.190  51.079
61755W        W53679  29.214  35.728  52.887
61756W        W53680  14.752  47.696  52.428
61757W        W53681   4.781   9.278  50.144
61758W        W53682  44.714  37.698  53.360
61759W        W53683  48.207  12.243  53.776
61760W        W53684  17.748   9.254  50.159
61761W        W53685  41.704  28.748  51.068
61762W        W53686   5.769  47.689  52.871
61763W        W53687  19.721  30.233  52.896
61764W        W53688  24.738  38.210  52.410
61765W        W53689  40.220   3.747  53.803
61766W        W53690  44.714  24.727  50.164
61767W        W53691  13.760  15.240  49.692
61768W        W53692  23.213  33.721  52.428
61769W        W53693  24.235  10.271  53.776
61770W        W53694  21.242  30.743  51.071
61771W        W53695  37.197  44.208  50.157
61772W        W53696   9.241  23.744  53.787
61773W        W53697  32.209   2.786  51.979
61774W        W53698  33.204  47.176  52.429
61775W        W53699  25.747   0.762  53.794
61776W        W53700  47.690  40.727  50.605
61777W        W53701  16.739  10.743  52.411
61778W        W53702  47.184   5.768  51.532
61779W        W53703  31.231   7.761  51.041
61780W        W53704  10.774  44.199  52.879
61781W        W53705  16.238  22.237  52.413
61782W        W53706   7.787   5.754  51.068
61783W        W53707  45.216  43.719  53.333
61784W        W53708  36.195  41.694  51.043
61785W        W53709  44.192  15.758  51.991
61786W        W53710  22.224   2.291  50.123
61787W        W53711  43.199  33.206  52.884
61788W        W53712  39.693  23.242  50.128
61789W        W53713  14.235  13.244  53.350
61790W        W53714  24.243   8.242  51.950
61791W        W53715  29.244   6.748  51.504
61792W        W53716  20.740   4.289  52.867
61793W        W53717  21.231  25.215  51.960
61794W        W53718  27.728  20.716  50.144
61795W        W53719   1.783  38.233  49.678
61796W        W53720   9.750  48.211  49.699
61797W        W53721  47.684   8.771  51.982
61798W        W53722  45.680   5.773  49.674
61799W        W53723  30.242  38.724  51.981
61800W        W53724   2.293   7.776  51.490
61801W        W53725  34.221  34.704  50.124
61802W        W53726  36.212  43.716  53.322
61803W        W53727  14.740  25.234  50.616
61804W        W53728  45.214   8.262  52.418
61805W        W53729  39.189  44.190  51.062
61806W        W53730  13.234  38.227  52.871
61807W        W53731  29.738  46.186  50.590
61808W        W53732   4.748  24.227  50.621
61809W        W53733   1.748  33.197  53.339
61810W        W53734  21.249  29.741  50.587
61811W        W53735  48.181   3.767  50.150
61812W        W53736  16.730   3.254  50.622
61813W        W53737  14.754  12.769  50.160
61814W        W53738  38.225  26.755  52.893
61815W        W53739  28.739  38.207  53.317
61816W        W53740  20.755  30.218  50.130
61817W        W53741  24.255  33.735  50.608
61818W        W53742  12.755  25.718  53.346
61819W        W53743   9.235  20.245  51.974
61820W        W53744  20.720  33.695  50.586
61821W        W53745  12.272  46.200  53.776
61822W        W53746  28.233  20.236  50.583
61823W        W53747  37.725  35.215  50.135
61824W        W53748  11.769   7.746  52.878
61825W        W53749  43.684  20.243  51.978
61826W        W53750   5.742  29.239  50.613
61827W        W53751  10.250  38.237  53.780
61828W        W53752  16.250   0.756  51.069
61829W        W53753   3.770  39.216  50.131
61830W        W53754  44.195  23.217  51.969
61831W        W53755  27.216  19.763  51.533
61832W        W53756  21.752   6.279  51.504
61833W        W53757  45.685  37.689  51.051
61834W        W53758  16.248   5.289  53.817
61835W        W53759  33.696   9.783  50.133
61836W        W53760  15.242  26.751  52.900
61837W        W53761  39.688  12.739  50.618
61838W        W53762  34.714   4.281  52.431
61839W        W53763   2.287   5.281  52.447
61840W        W53764  15.264   7.280  51.982
61841W        W53765  15.248  46.706  51.072
61842W        W53766  14.264  40.192  53.788
61843W        W53767  12.259  13.273  50.142
61844W        W53768  26.250  25.214  53.792
61845W        W53769  25.712  30.216  49.678
61846W        W53770  18.244  33.734  51.968
61847W        W53771  29.230  32.232  52.430
61848W        W53772   8.254  46.221  50.145
61849W        W53773  47.191  25.751  51.964
61850W        W53774  31.726   3.750  50.124
61851W        W53775  30.234  42.224  53.338
61852W        W53776  44.703   0.289  52.407
61853W        W53777  36.733   2.252  53.817
61854W        W53778  33.716  33.698  51.493
61855W        W53779  47.697  14.764  49.688
61856W        W53780  18.740  42.709  52.893
61857W        W53781  39.198  32.243  52.417
61858W        W53782  16.731   0.270  51.981
61859W        W53783   0.769   3.745  51.952
61860W        W53784  46.210  30.704  49.705
61861W        W53785  28.226  28.242  53.798
61862W        W53786  34.695  33.733  51.068
61863W        W53787  26.738  10.738  53.803
61864W        W53788  15.726   1.274  49.684
61865W        W53789   5.753  27.220  51.059
61866W        W53790   9.740   9.257  51.508
61867W        W53791  30.203  18.270  53.795
61868W        W53792  15.245   7.753  53.337
61869W        W53793  46.722  47.194  52.894
61870W        W53794  35.730  34.202  50.134
61871W        W53795  37.714   6.275  51.055
61872W        W53796   9.250  26.237  53.790
61873W        W53797  35.213   9.753  51.960
61874W        W53798  45.715  10.264  53.797
61875W        W53799   3.793  35.692  51.078
61876W        W53800  13.757  46.690  53.343
61877W        W53801  41.182  30.744  50.594
61878W        W53802  14.747   4.768  53.811
61879W        W53803  38.198  23.237  51.078
61880W        W53804  39.697  44.218  51.985
61881W        W53805  36.240   1.255  53.805
61882W        W53806   1.269  25.210  52.891
61883W        W53807  20.728  37.214  51.495
61884W        W53808  26.244  17.263  53.773
61885W        W53809   4.264   3.774  49.708
61886W        W53810  32.715   7.266  49.697
61887W        W53811  38.198  39.220  52.434
61888W        W53812  36.734  17.734  50.597
61889W        W53813  23.250   5.268  50.608
61890W        W53814  11.744  47.695  50.141
61891W        W53815   6.761  14.776  52.894
61892W        W53816  40.206  43.203  52.871
61893W        W53817   8.758   0.781  51.506
61894W        W53818   6.288  19.737  52.405
61895W        W53819  30.237  45.723  49.675
61896W        W53820  34.217  13.232  52.883
61897W        W53821  40.705   3.771  49.696
61898W        W53822  22.748  46.677  51.066
61899W        W53823  33.702  41.717  53.349
61900W        W53824  26.215  14.263  50.157
61901W        W53825  31.736  17.735  52.861
61902W        W53826   2.249  25.748  51.043
61903W        W53827  39.726  14.744  52.899
61904W        W53828  32.722  22.741  53.346
61905W        W53829  31.221  36.210  52.404
61906W        W53830  28.253  46.181  51.071
61907W        W53831  42.715   8.245  52.879
61908W        W53832  14.733  20.763  50.153
61909W        W53833  15.249  11.235  49.675
61910W        W53834  22.249  32.734  51.964
61911W        W53835  31.709   7.263  52.405
61912W        W53836  22.717  36.690  51.070
61913W        W53837  39.729  32.723  51.949
61914W        W53838  32.234   3.274  51.991
61915W        W53839  11.744   6.777  49.684
61916W        W53840  45.700  36.223  49.677
61917W        W53841  47.203  33.730  50.580
61918W        W53842  10.258  23.238  51.958
61919W        W53843  23.730   7.245  51.035
61920W        W53844  14.255   1.776  50.126
61921W        W53845  11.269  43.221  53.792
61922W        W53846  25.243  24.746  51.526
61923W        W53847   6.755  28.210  51.531
61924W        W53848   4.743  15.263  53.809
61925W        W53849   9.283   6.782  49.693
61926W        W53850  37.196  44.208  53.359
61927W        W53851   2.760  15.251  51.530
61928W        W53852  17.267  46.193  50.141
61929W        W53853  10.280   7.288  50.124
61930W        W53854  43.184   9.758  50.612
61931W        W53855  19.757  23.719  52.889
61932W        W53856  29.239  21.753  51.523
61933W        W53857  30.200  23.723  53.340
61934W        W53858  22.760  24.210  53.815
61935W        W53859  44.723  46.219  51.064
61936W        W53860   3.273  20.724  50.581
61937W        W53861  45.699  27.249  52.447
61938W        W53862   7.276  45.680  53.816
61939W        W53863  17.242  45.189  51.038
61940W        W53864  26.218   0.783  51.497
61941W        W53865  28.210  34.238  50.602
61942W        W53866  19.744  22.242  49.673
61943W        W53867   2.255   8.282  53.355
61944W        W53868  18.732  38.702  51.530
61945W        W53869  25.236  18.724  50.592
61946W        W53870  31.207   2.776  49.670
61947W        W53871  34.233  40.213  51.971
61948W        W53872  44.200   0.767  52.414
61949W        W53873  12.253  36.737  50.127
61950W        W53874  13.244  35.702  51.521
61951W        W53875  47.672   3.748  51.076
61952W        W53876  45.683  24.224  51.963
61953W        W53877  21.247  46.205  53.805
61954W        W53878  26.707  41.213  49.681
61955W        W53879   0.774  42.215  53.357
61956W        W53880  40.710  34.235  51.960
61957W        W53881   5.751  22.733  53.794
61958W        W53882  46.704  30.210  53.804
61959W        W53883  22.216   4.262  51.525
61960W        W53884  20.229  39.186  52.868
61961W        W53885  20.262  18.254  53.323
61962W        W53886   2.773  40.732  51.512
61963W        W53887  27.706  26.220  52.885
61964W        W53888  44.687   7.277  52.407
61965W        W53889  36.700  15.249  51.068
61966W        W53890   5.245  34.199  52.426
61967W        W53891  13.275  17.755  50.621
61968W        W53892  42.196  24.753  53.785
61969W        W53893  25.716   2.747  51.075
61970W        W53894  25.248  10.237  51.991
61971W        W53895  43.193  32.705  50.593
61972W        W53896   3.267   9.245  49.707
61973W        W53897  10.749  35.218  53.815
61974W        W53898  39.708   4.785  53.789
61975W        W53899  13.252  40.683  53.319
61976W        W53900  18.741  23.734  51.500
61977W        W53901  40.731  21.221  53.337
61978W        W53902  37.703  38.689  52.886
61979W        W53903  20.726  37.708  51.975
61980W        W53904  32.719  45.202  52.441
61981W        W53905  31.730  42.720  52.423
61982W        W53906  40.192  25.220  52.418
61983W        W53907  36.693  29.216  50.123
61984W        W53908  39.713  47.711  53.788
61985W        W53909   7.284  14.771  49.701
61986W        W53910   1.790  15.767  51.975
61987W        W53911  44.710  31.710  52.872
61988W        W53912  30.747  40.685  53.340
61989W        W53913  44.181  19.232  53.356
61990W        W53914  14.764  14.760  51.969
61991W        W53915  39.194  21.720  51.963
61992W        W53916   7.758  32.722  50.137
61993W        W53917  25.747  30.217  53.325
61994W        W53918   3.285  22.756  51.072
61995W        W53919  36.205  18.738  50.612
61996W        W53920  26.233  45.191  52.886
61997W        W53921  47.714  22.734  52.422
61998W        W53922   7.243  41.714  51.042
61999W        W53923   5.742  12.261  50.620
62000W        W53924  47.194  12.733  52.869
62001W        W53925  34.694  44.724  53.799
62002W        W53926  37.714  16.734  51.519
62003W        W53927   1.249  28.206  51.972
62004W        W53928  29.244  26.711  51.523
62005W        W53929  41.718  36.720  52.444
62006W        W53930   4.759  18.733  51.040
62007W        W53931  14.727  25.247  53.809
62008W        W53932  39.692  34.698  50.151
62009W        W53933  16.738   7.266  52.420
62010W        W53934   5.771  12.742  51.053
62011W        W53935  31.712   0.265  50.164
62012W        W53936  39.711  34.210  49.698
62013W        W53937  30.733  16.271  49.705
62014W        W53938   3.285  34.205  51.493
62015W        W53939  10.257  21.246  51.068
62016W        W53940  22.246  47.699  53.803
62017W        W53941  44.681  21.220  53.794
62018W        W53942  34.741  17.240  52.878
62019W        W53943  46.210   5.281  53.773
62020W        W53944  13.746  32.706  49.684
62021W        W53945   2.776  38.201  51.948
62022W        W53946  29.229   9.771  49.702
62023W        W53947   0.785  40.191  49.704
62024W        W53948  34.719  24.736  52.403
62025W        W53949  25.221  15.734  53.359
62026W        W53950  24.224  37.693  51.989
62027W        W53951  23.213  23.722  50.125
62028W        W53952  25.752  20.720  50.622
62029W        W53953  38.209  26.244  49.667
62030W        W53954  14.768  10.253  49.704
62031W        W53955  26.746  11.250  53.337
62032W        W53956  10.282  32.229  51.968
62033W        W53957  30.227  14.754  50.143
62034W        W53958  25.724  36.238  49.670
62035W        W53959  39.199  23.752  53.355
62036W        W53960  17.763  41.729  52.412
62037W        W53961   8.741  42.221  49.683
62038W        W53962   8.249  16.750  49.676
62039W        W53963  27.233  21.219  53.789
62040W        W53964  40.189  12.738  51.535
62041W        W53965  23.217   7.250  52.863
62042W        W53966   9.754  16.770  53.811
62043W        W53967  26.709  13.773  53.318
62044W        W53968  37.220  27.206  52.427
62045W        W53969  28.724   4.749  51.517
62046W        W53970  12.764  26.753  53.780
62047W        W53971   1.261  32.700  52.885
62048W        W53972   4.292  14.734  49.685
62049W        W53973  43.203   4.284  52.429
62050W        W53974  16.251   1.296  52.866
62051W        W53975  47.213  26.257  51.038
62052W        W53976  42.211  26.711  51.966
62053W        W53977   3.274  18.767  51.042
62054W        W53978  16.229   1.282  53.791
62055W        W53979   7.253  44.198  52.446
62056W        W53980  45.675  45.693  51.511
62057W        W53981  29.717  29.250  51.074
62058W        W53982  46.195  40.201  51.954
62059W        W53983  43.228  28.719  51.523
62060W        W53984  10.765  14.263  52.411
62061W        W53985   8.284  41.217  51.975
62062W        W53986  46.196  28.726  53.811
62063W        W53987  13.264  37.218  53.320
62064W        W53988  36.724  12.249  53.796
62065W        W53989   7.748  19.740  53.816
62066W        W53990  11.742  17.226  52.440
62067W        W53991  10.735   9.754  52.428
62068W        W53992   1.267   5.742  52.900
62069W        W53993   5.784  35.213  49.671
62070W        W53994  15.773  14.240  51.534
62071W        W53995  21.743   7.263  52.443
62072W        W53996  21.756  33.716  52.888
62073W        W53997  28.228   5.248  51.954
62074W        W53998  26.207   1.755  51.950
62075W        W53999  35.721  32.228  53.792
62076W        W54000  11.765  41.215  50.141
62077W        W54001  48.200   5.275  51.049
62078W        W54002   5.771  47.187  49.705
62079W        W54003   8.259  22.735  51.046
62080W        W54004  38.231   5.258  53.318
62081W        W54005  42.214  23.749  49.666
62082W        W54006   5.771  11.254  52.427
62083W        W54007   9.781  13.759  49.665
62084W        W54008  46.682  46.676  50.166
62085W        W54009  12.758  41.191  51.956
62086W        W54010  22.746   6.747  53.344
62087W        W54011  33.229  16.744  52.422
62088W        W54012  25.255  16.725  53.359
62089W        W54013   6.263   0.258  51.990
62090W        W54014  27.723  11.757  52.871
62091W        W54015  20.237   0.756  50.595
62092W        W54016  20.250   2.791  53.344
62093W        W54017   1.778  13.728  52.866
62094W        W54018  36.728  33.235  52.433
62095W        W54019  10.743   8.780  52.408
62096W        W54020  29.711   4.771  51.518
62097W        W54021  26.752  19.221  51.078
62098W        W54022  28.253  20.745  51.074
62099W        W54023  24.746   3.745  51.521
62100W        W54024  12.240  33.226  53.330
62101W        W54025  34.210  16.766  51.035
62102W        W54026  14.770  29.235  50.144
62103W        W54027  12.235  19.756  49.679
62104W        W54028  32.233  35.716  51.498
62105W        W54029  15.249  44.179  51.534
62106W        W54030  33.703   4.254  49.708
62107W        W54031   8.754  46.174  52.428
62108W        W54032  12.231  39.733  51.989
62109W        W54033  41.194  36.229  51.052
62110W        W54034  21.263  43.718  51.988
62111W        W54035  44.199  15.273  49.680
62112W        W54036  24.739  15.238  49.666
62113W        W54037  10.267  45.177  49.697
62114W        W54038  25.731  12.231  51.053
62115W        W54039   9.773   2.279  51.521
62116W        W54040  10.275  31.742  52.427
62117W        W54041  26.726   7.766  52.428
62118W        W54042   1.772  26.238  52.868
62119W        W54043  44.688  28.252  50.615
62120W        W54044   7.757   8.745  53.341
62121W        W54045  27.245  37.215  53.326
62122W        W54046  33.714  13.732  49.688
62123W        W54047   2.748  37.690  52.889
62124W        W54048   4.292  23.252  53.788
62125W        W54049  36.207  33.723  50.620
62126W        W54050  37.222   8.769  50.155
62127W        W54051  33.699  11.732  49.701
62128W        W54052   6.766  36.702  53.781
62129W        W54053  34.720  39.728  53.352
62130W        W54054  31.209  37.192  52.403
62131W        W54055  36.239  33.204  51.533
62132W        W54056  23.718  20.726  51.076
62133W        W54057  10.775  42.198  51.989
62134W        W54058  30.739  40.196  51.949
62135W        W54059  30.227  12.752  49.691
62136W        W54060  12.756  10.769  49.700
62137W        W54061  13.230  43.695  51.495
62138W        W54062  37.733  26.213  52.423
62139W        W54063  48.180   5.749  49.667
62140W        W54064  17.766  46.692  50.147
62141W        W54065  41.217  40.692  51.039
62142W        W54066   8.238  30.238  49.701
62143W        W54067  41.703  16.756  52.436
62144W        W54068   5.259  46.177  49.698
62145W        W54069  31.706  32.210  52.891
62146W        W54070   8.262  22.236  49.703
62147W        W54071  22.226  15.740  53.334
62148W        W54072  42.211  15.232  51.522
62149W        W54073   5.268  37.227  51.034
62150W        W54074  26.721   0.781  52.886
62151W        W54075   9.283  14.729  51.991
62152W        W54076   7.259  32.236  53.784
62153W        W54077   1.780  15.734  49.683
62154W        W54078  27.742  48.180  52.871
62155W        W54079  12.231   5.287  49.697
62156W        W54080  17.235  11.765  51.955
62157W        W54081  38.692  17.269  53.323
62158W        W54082  17.757   3.786  53.809
62159W        W54083  28.706  45.702  52.889
62160W        W54084  38.690  34.742  53.359
62161W        W54085  20.243   6.776  52.435
62162W        W54086   8.237  16.230  53.778
62163W        W54087  29.252  23.745  49.707
62164W        W54088  40.700  31.700  53.360
62165W        W54089  21.234  39.710  51.952
62166W        W54090  28.221  22.746  53.777
62167W        W54091  27.239  45.183  49.671
62168W        W54092  43.222  11.742  52.881
62169W        W54093  37.201  37.727  53.353
62170W        W54094  26.221  29.250  51.982
62171W        W54095  25.752  31.200  51.050
62172W        W54096  47.698   2.762  52.897
62173W        W54097  22.754  22.741  50.161
62174W        W54098  17.740  19.242  51.521
62175W        W54099   0.773  25.252  51.077
62176W        W54100  23.739  33.206  51.506
62177W        W54101  22.225  42.210  49.668
62178W        W54102  30.241   7.240  52.876
62179W        W54103  40.702   9.779  52.881
62180W        W54104  45.206  24.712  50.603
62181W        W54105  24.755   9.275  51.954
62182W        W54106  14.234   6.764  52.875
62183W        W54107  26.734  21.243  51.058
62184W        W54108  25.241  30.711  51.516
62185W        W54109  28.206  38.701  52.414
62186W        W54110  10.252  10.275  53.343
62187W        W54111  47.679  36.731  52.892
62188W        W54112  10.233  43.203  52.448
62189W        W54113  38.205  35.211  52.444
62190W        W54114  35.233  38.688  52.408
62191W        W54115  13.274  28.253  53.343
62192W        W54116  11.757  16.772  50.151
62193W        W54117  26.226  47.721  52.884
62194W        W54118  15.738  16.261  50.589
62195W        W54119  37.722  20.264  53.331
62196W        W54120  46.180   4.755  53.781
62197W        W54121  39.730  25.257  51.973
62198W        W54122  44.720   9.772  51.514
62199W        W54123  30.704  21.755  50.578
62200W        W54124  10.741  42.714  51.040
62201W        W54125  14.744  18.265  51.514
62202W        W54126   8.243  40.705  53.353
62203W        W54127  42.217   5.243  52.902
62204W        W54128  23.258  25.722  51.972
62205W        W54129  34.719  29.732  52.429
62206W        W54130  28.226  36.711  53.796
62207W        W54131  33.721   4.776  53.347
62208W        W54132  11.776  18.234  49.703
62209W        W54133  21.225   4.267  49.678
62210W        W54134  27.207  46.197  51.051
62211W        W54135  27.749  18.252  52.444
62212W        W54136  33.730  19.243  52.404
62213W        W54137  11.264   2.770  51.063
62214W        W54138  20.735  47.214  52.902
62215W        W54139  17.222  39.203  51.501
62216W        W54140   4.261  31.746  51.075
62217W        W54141  32.736   3.775  53.811
62218W        W54142   7.771  11.257  52.896
62219W        W54143  21.719  25.241  51.063
62220W        W54144  34.201  27.749  50.593
62221W        W54145  29.723  39.708  51.073
62222W        W54146   0.773   4.267  49.686
62223W        W54147  17.760   7.753  53.327
62224W        W54148  36.218   1.787  53.317
62225W        W54149  19.737   9.237  51.950
62226W        W54150  20.737  46.203  53.352
62227W        W54151  43.221  26.208  49.670
62228W        W54152  39.723  48.197  51.078
62229W        W54153   5.786  22.751  51.961
62230W        W54154  37.724  15.756  50.148
62231W        W54155   2.777  24.717  51.978
62232W        W54156  47.711  21.237  51.980
62233W        W54157   2.787  38.225  51.493
62234W        W54158  31.216  28.739  50.137
62235W        W54159  12.766   1.755  51.948
62236W        W54160  10.750  16.244  51.522
62237W        W54161  31.210  30.704  53.784
62238W        W54162  12.747  23.731  52.429
62239W        W54163   6.744  22.230  53.316
62240W        W54164  43.196  28.250  50.586
62241W        W54165  35.217  14.756  53.322
62242W        W54166  42.696  44.720  53.316
62243W        W54167  12.744   5.262  53.809
62244W        W54168  10.271  35.704  53.816
62245W        W54169   7.263   3.289  50.143
62246W        W54170  12.773   0.754  49.708
62247W        W54171  34.737  33.238  51.526
62248W        W54172  20.750  18.232  53.802
62249W        W54173   4.788  35.702  51.966
62250W        W54174  36.211  10.752  51.974
62251W        W54175   6.248  31.714  52.414
62252W        W54176   9.757  22.247  52.424
62253W        W54177   7.276  32.223  50.139
62254W        W54178  44.187  36.694  49.669
62255W        W54179   2.279  35.238  50.157
62256W        W54180  26.215  43.687  50.151
62257W        W54181  33.232  12.265  51.526
62258W        W54182   5.757  24.233  53.352
62259W        W54183  34.217  41.197  51.519
62260W        W54184  21.749  15.231  51.981
62261W        W54185  15.259  48.212  53.358
62262W        W54186  28.730  28.241  53.353
62263W        W54187  21.241  10.234  50.125
62264W        W54188  25.212  46.182  51.061
62265W        W54189  28.710  37.717  50.592
62266W        W54190  45.189  29.233  52.879
62267W        W54191   7.741  16.727  51.981
62268W        W54192  39.198  13.257  53.796
62269W        W54193  17.747   0.777  52.416
62270W        W54194  12.239  10.254  49.679
62271W        W54195  47.675  34.710  51.507
62272W        W54196   1.273  24.240  50.619
62273W        W54197  20.744  10.776  53.815
62274W        W54198  47.212  22.754  51.491
62275W        W54199  47.198  23.257  51.504
62276W        W54200  29.706  38.692  53.810
62277W        W54201   1.265  45.190  50.589
62278W        W54202  30.250  45.186  50.135
62279W        W54203  28.220  16.762  50.583
62280W        W54204  44.199  31.712  53.816
62281W        W54205  42.715  15.259  51.039
62282W        W54206  32.210  13.262  51.499
62283W        W54207   6.245  23.731  52.403
62284W        W54208   2.295   7.270  52.414
62285W        W54209   4.748  12.756  50.158
62286W        W54210  30.728  44.699  50.133
62287W        W54211   9.750  16.272  50.146
62288W        W54212  38.721  13.271  49.708
62289W        W54213  37.715  24.726  49.692
62290W        W54214  40.225   9.761  53.341
62291W        W54215  26.727  37.238  49.665
62292W        W54216  18.747  38.715  52.404
62293W        W54217   7.279  41.188  52.413
62294W        W54218   7.252  36.196  51.972
62295W        W54219   8.760  27.733  51.528
62296W        W54220  29.209  36.212  50.618
62297W        W54221  32.731  29.737  52.438
62298W        W54222  32.202  19.762  53.782
62299W        W54223  14.755  33.714  52.442
62300W        W54224  34.719  37.696  50.122
62301W        W54225  34.210  31.726  49.699
62302W        W54226  44.714  48.195  49.692
62303W        W54227  46.186  30.213  52.899
62304W        W54228  43.193  16.232  51.060
62305W        W54229   6.753  24.714  52.446
62306W        W54230  33.727  31.234  53.798
62307W        W54231  32.696  28.221  53.775
62308W        W54232  27.730  37.730  50.583
62309W        W54233  25.254  35.227  53.317
62310W        W54234  40.713  45.682  51.528
62311W        W54235  30.211   9.237  53.339
62312W        W54236  40.721  25.753  50.590
62313W        W54237  15.770  13.248  53.788
62314W        W54238  40.690  37.703  52.895
62315W        W54239  47.174  38.231  51.065
62316W        W54240   9.267  32.236  50.147
62317W        W54241  12.731   1.760  49.666
62318W        W54242   7.272  46.689  51.054
62319W        W54243  34.734  42.216  50.155
62320W        W54244  15.758  33.242  53.779
62321W        W54245  18.240  16.244  52.885
62322W        W54246  30.204  34.713  50.578
62323W        W54247  27.712  29.248  50.590
62324W        W54248   1.784   8.274  53.339
62325W        W54249  16.771   3.770  53.789
62326W        W54250  39.721  15.262  51.535
62327W        W54251   1.778  33.727  51.064
62328W        W54252   3.255  17.225  51.504
62329W        W54253  29.205   5.291  52.415
62330W        W54254  27.227  39.202  49.701
62331W        W54255  32.223  44.192  51.071
62332W        W54256  27.210  29.734  49.682
62333W        W54257  32.712  29.218  52.865
62334W        W54258   3.259  19.232  52.881
62335W        W54259   6.769   6.247  53.792
62336W        W54260  25.738  27.231  51.977
62337W        W54261  31.227  28.728  53.361
62338W        W54262   8.760  19.743  51.521
62339W        W54263   3.752  19.254  50.148
62340W        W54264   8.774  26.245  51.950
62341W        W54265  18.233  48.207  51.494
62342W        W54266  43.692  45.197  49.691
62343W        W54267  29.204  32.239  49.694
62344W        W54268  41.201  12.241  50.577
62345W        W54269  42.204   7.269  49.668
62346W        W54270  45.684   5.271  51.497
62347W        W54271   2.751  47.709  52.422
62348W        W54272   3.786  13.249  51.979
62349W        W54273   3.275  31.698  49.691
62350W        W54274  18.762  19.266  52.436
62351W        W54275  47.186  21.228  52.862
62352W        W54276  18.239  36.232  50.141
62353W        W54277  10.277   9.264  49.671
62354W        W54278  33.729  19.258  51.067
62355W        W54279  35.735  45.216  52.880
62356W        W54280   8.764  29.706  51.984
62357W        W54281  25.211  23.248  52.891
62358W        W54282  43.694   3.755  50.617
62359W        W54283  23.754  27.207  53.361
62360W        W54284  24.256   0.256  53.799
62361W        W54285  18.266  11.739  51.956
62362W        W54286  13.254   2.783  50.121
62363W        W54287  27.207  32.697  53.336
62364W        W54288  10.281   4.754  53.795
62365W        W54289  11.278  13.735  51.977
62366W        W54290  47.707  12.257  49.703
62367W        W54291  21.252  38.721  53.358
62368W        W54292  38.732  40.698  50.616
62369W        W54293   5.260  13.755  53.811
62370W        W54294  39.200  18.732  51.077
62371W        W54295  37.223  42.200  50.619
62372W        W54296   8.736  10.754  51.523
62373W        W54297  32.740  28.231  53.359
62374W        W54298  32.704  44.219  51.071
62375W        W54299  30.744  32.230  51.983
62376W        W54300   5.771  15.740  52.426
62377W        W54301  45.711   7.244  50.139
62378W        W54302  22.252  29.750  51.507
62379W        W54303  31.198  23.758  53.800
62380W        W54304  40.711  33.715  53.348
62381W        W54305   3.276  47.719  51.977
62382W        W54306  41.203   4.743  51.975
62383W        W54307  42.192  20.728  53.323
62384W        W54308  42.192  14.236  51.490
62385W        W54309  26.742  35.701  53.808
62386W        W54310  34.738  29.716  49.698
62387W        W54311  37.730   9.269  52.893
62388W        W54312  38.717  41.190  51.035
62389W        W54313  17.235   6.767  50.596
62390W        W54314  23.230   9.284  52.897
62391W        W54315  27.213  30.214  53.778
62392W        W54316  32.211  31.708  49.679
62393W        W54317  13.739  46.180  51.057
62394W        W54318  30.205   1.776  52.420
62395W        W54319   6.257  34.740  50.124
62396W        W54320  22.234  30.722  52.443
62397W        W54321  41.204   5.254  52.438
62398W        W54322   7.263  22.226  51.530
62399W        W54323  35.700  17.739  50.578
62400W        W54324   2.784  43.221  51.078
62401W        W54325  46.715  13.229  51.040
62402W        W54326  45.185  33.700  53.815
62403W        W54327  38.225   8.741  53.773
62404W        W54328  30.700  10.745  50.162
62405W        W54329  33.695  41.707  51.525
62406W        W54330   3.789  32.745  53.337
62407W        W54331  14.738  14.276  51.071
62408W        W54332  11.236  46.714  51.069
62409W        W54333  14.762  37.696  51.978
62410W        W54334  40.186  11.764  52.413
62411W        W54335  16.739  20.746  50.608
62412W        W54336  18.239   2.746  50.137
62413W        W54337  19.735  25.241  52.443
62414W        W54338  11.761   0.779  52.891
62415W        W54339  30.249  21.217  52.900
62416W        W54340  22.217   0.293  51.947
62417W        W54341  14.229  36.713  52.443
62418W        W54342  39.202  15.751  53.791
62419W        W54343  18.260  10.776  52.892
62420W        W54344  23.749   7.740  50.597
62421W        W54345  47.720   5.776  51.954
62422W        W54346  33.716  22.761  51.961
62423W        W54347  45.206   0.268  50.579
62424W        W54348  24.219  44.188  51.501
62425W        W54349  34.718  31.736  51.962
62426W        W54350  25.737  44.695  51.078
62427W        W54351  22.724  16.251  53.324
62428W        W54352  32.220   0.777  51.533
62429W        W54353  40.718   9.278  53.789
62430W        W54354   6.269  25.728  53.802
62431W        W54355  32.738   6.277  53.774
62432W        W54356   5.262  35.735  52.884
62433W        W54357   1.297  15.273  49.707
62434W        W54358  30.707  23.716  52.884
62435W        W54359  30.706  24.731  53.793
62436W        W54360  12.753  21.727  53.329
62437W        W54361  44.181  35.720  50.127
62438W        W54362   8.781  19.248  51.979
62439W        W54363  30.740  22.739  50.580
62440W        W54364  31.204  15.258  52.406
62441W        W54365  14.769  11.773  50.609
62442W        W54366  18.753  11.732  50.159
62443W        W54367  40.231  34.229  50.610
62444W        W54368  42.705  17.758  51.047
62445W        W54369   9.775  20.248  50.616
62446W        W54370  37.213  24.748  51.513
62447W        W54371  14.753  32.229  53.806
62448W        W54372  21.234  28.747  52.902
62449W        W54373   1.286   1.762  52.419
62450W        W54374  44.726   7.245  52.896
62451W        W54375  34.739   6.242  50.589
62452W        W54376  43.184  42.207  51.515
62453W        W54377  15.250  10.766  51.039
62454W        W54378   7.747   3.276  53.817
62455W        W54379  44.198   3.772  52.420
62456W        W54380  22.227  44.221  51.982
62457W        W54381  20.756  46.222  49.700
62458W        W54382   4.269   2.281  51.043
62459W        W54383  33.706  15.768  50.150
62460W        W54384  40.188   5.782  52.878
62461W        W54385  22.261  33.233  53.790
62462W        W54386  37.207  15.728  53.803
62463W        W54387   8.744  18.743  50.583
62464W        W54388  43.186  15.747  53.802
62465W        W54389  44.205  26.209  50.139
62466W        W54390  12.755   7.276  52.433
62467W        W54391   2.250  15.772  52.878
62468W        W54392  28.253  27.207  51.050
62469W        W54393  44.687  35.198  53.815
62470W        W54394  39.195   1.776  50.590
62471W        W54395  38.713  47.707  51.039
62472W        W54396  46.178   0.756  49.701
62473W        W54397  44.691  39.733  51.066
62474W        W54398  23.715  18.769  51.037
62475W        W54399  41.698  45.684  50.586
62476W        W54400   2.773  10.239  50.605
62477W        W54401  22.721  15.737  53.788
62478W        W54402  45.685   6.275  50.126
62479W        W54403  15.772  37.214  53.788
62480W        W54404  29.203  31.705  53.335
62481W        W54405  46.720  26.209  51.049
62482W        W54406  36.710   1.769  50.140
62483W        W54407  36.699  32.232  49.697
62484W        W54408  27.732   9.780  51.079
62485W        W54409  28.250   8.271  53.341
62486W        W54410  30.740  30.745  50.621
62487W        W54411  41.686   3.751  51.958
62488W        W54412  35.210   3.753  52.439
62489W        W54413  33.227  38.696  49.686
62490W        W54414   4.254   1.291  50.587
62491W        W54415  21.719  45.681  51.503
62492W        W54416  45.214   0.269  53.326
62493W        W54417  21.257  29.235  53.353
62494W        W54418  14.757  28.732  51.964
62495W        W54419  29.249  37.222  49.679
62496W        W54420  43.206  33.700  49.706
62497W        W54421   1.260  44.724  53.784
62498W        W54422  18.735  42.720  53.320
62499W        W54423   6.258  43.213  53.778
62500W        W54424  11.763  40.708  50.140
62501W        W54425  24.212   0.252  52.439
62502W        W54426  45.188  44.214  52.872
62503W        W54427  27.230  31.698  51.973
62504W        W54428  44.197   4.757  50.145
62505W        W54429   5.246   3.292  52.413
62506W        W54430  43.228  26.223  50.592
62507W        W54431  37.237  39.730  51.058
62508W        W54432  24.757   4.783  52.446
62509W        W54433  32.709   4.745  50.143
62510W        W54434  21.233  33.716  50.145
62511W        W54435   5.247   0.297  53.793
62512W        W54436  42.225   1.748  52.886
62513W        W54437  35.732  42.683  49.688
62514W        W54438  23.254  40.209  51.497
62515W        W54439  10.766  10.264  50.141
62516W        W54440  12.730  37.699  50.623
62517W        W54441  34.698   8.242  52.872
62518W        W54442  44.678  34.202  53.814
62519W        W54443  48.172  37.723  51.050
62520W        W54444  33.727  27.706  52.888
62521W        W54445  41.710  21.754  53.786
62522W        W54446   4.788   0.250  52.888
62523W        W54447  14.243   8.239  51.967
62524W        W54448  15.742  18.229  51.976
62525W        W54449   8.771  14.262  51.050
62526W        W54450  27.219  15.242  50.132
62527W        W54451  25.255   4.271  53.340
62528W        W54452  27.243   7.253  53.340
62529W        W54453  46.186  41.703  53.785
62530W        W54454  37.717   7.286  53.774
62531W        W54455  14.767  11.745  49.679
62532W        W54456  36.228   3.266  53.353
62533W        W54457  46.719  40.712  51.518
62534W        W54458  32.220  15.767  50.161
62535W        W54459  42.696  41.198  50.613
62536W        W54460   2.280  45.218  53.355
62537W        W54461  24.730  34.236  50.590
62538W        W54462  21.243  43.719  51.061
62539W        W54463  28.740  47.222  51.981
62540W        W54464  44.681  44.695  50.141
62541W        W54465  15.255  15.249  50.621
62542W        W54466  14.749  43.198  50.160
62543W        W54467  31.229  25.213  53.803
62544W        W54468  11.775  42.200  53.345
62545W        W54469   9.750  48.185  51.515
62546W        W54470  28.242  35.227  51.497
62547W        W54471  12.254   5.288  52.891
62548W        W54472  41.722  26.226  50.163
62549W        W54473  31.203  35.702  52.894
62550W        W54474  42.208  47.677  50.150
62551W        W54475  20.255  29.242  53.344
62552W        W54476   3.774  10.278  50.148
62553W        W54477  12.238  30.212  51.971
62554W        W54478   1.773  21.227  50.125
62555W        W54479  42.189  21.763  53.789
62556W        W54480  42.708  37.698  53.777
62557W        W54481  11.273  23.753  51.051
62558W        W54482  15.769  14.733  53.787
62559W        W54483  41.726  13.249  52.905
62560W        W54484   3.245  37.199  49.701
62561W        W54485   2.755  35.220  50.586
62562W        W54486   0.790   2.286  53.322
62563W        W54487  12.261  16.755  51.987
62564W        W54488  30.230  23.224  50.603
62565W        W54489  41.723  15.734  51.533
62566W        W54490   6.785  29.221  51.526
62567W        W54491  41.187  13.746  52.421
62568W        W54492  25.719  19.256  51.963
62569W        W54493  31.245  36.217  52.864
62570W        W54494   8.277  16.237  51.493
62571W        W54495  47.679  47.197  51.977
62572W        W54496  40.211  29.726  52.866
62573W        W54497  24.255  34.195  50.131
62574W        W54498  46.175  38.211  52.424
62575W        W54499   5.742  13.269  53.797
62576W        W54500  13.263  28.743  53.798
62577W        W54501  24.220   6.752  49.698
62578W        W54502  14.250  28.750  50.163
62579W        W54503  17.223  40.225  52.884
62580W        W54504  38.721  46.208  50.130
62581W        W54505  22.242  18.726  50.124
62582W        W54506   2.257  27.252  50.591
62583W        W54507  36.231  32.199  52.411
62584W        W54508  26.247  27.208  51.981
62585W        W54509  33.244  30.221  53.812
62586W        W54510   2.289  10.242  52.896
62587W        W54511  46.681   2.781  51.056
62588W        W54512  35.721  15.247  51.517
62589W        W54513  47.199  48.183  53.798
62590W        W54514   3.782   6.743  53.321
62591W        W54515  37.198   9.734  52.877
62592W        W54516  35.707  11.750  53.332
62593W        W54517  35.722  27.748  53.341
62594W        W54518  18.736  37.728  49.705
62595W        W54519  35.734  16.771  49.694
62596W        W54520   5.279  44.202  51.951
62597W        W54521   1.270  22.219  53.791
62598W        W54522   5.752  43.211  50.166
62599W        W54523  31.707  29.231  52.419
62600W        W54524  37.201  38.709  53.337
62601W        W54525   6.278  20.245  52.870
62602W        W54526  37.717  23.231  51.068
62603W        W54527   9.739  48.174  52.414
62604W        W54528  29.742  47.214  51.974
62605W        W54529  33.222  30.236  50.579
62606W        W54530  20.731  35.202  53.782
62607W        W54531  15.253   7.753  53.784
62608W        W54532  44.726  35.212  51.502
62609W        W54533  48.215  24.744  52.890
62610W        W54534   8.746  38.230  53.353
62611W        W54535  15.739  12.763  53.792
62612W        W54536  24.212  39.724  52.873
62613W        W54537  27.223  41.716  50.591
62614W        W54538  44.721  22.222  51.037
62615W        W54539  25.252   3.750  50.612
62616W        W54540  12.741  13.240  51.981
62617W        W54541  23.737   2.752  51.529
62618W        W54542  20.240  39.689  50.150
62619W        W54543  17.744  27.725  53.360
62620W        W54544  47.691  37.700  50.159
62621W        W54545   3.291  14.738  53.319
62622W        W54546  20.738  22.250  53.811
62623W        W54547  10.234   0.781  50.590
62624W        W54548  47.201  45.186  51.067
62625W        W54549  15.274   4.258  51.970
62626W        W54550  40.732  41.229  50.612
62627W        W54551  24.744  41.192  51.495
62628W        W54552  36.718  12.232  53.341
62629W        W54553  25.239   4.243  53.788
62630W        W54554  47.195  37.190  50.618
62631W        W54555  43.708  18.226  50.593
62632W        W54556   3.756  27.722  50.132
62633W        W54557  17.727  10.751  53.777
62634W        W54558  24.747  13.768  50.586
62635W        W54559  16.241  17.237  51.070
62636W        W54560   3.776  36.739  50.142
62637W        W54561  48.178  29.251  51.051
62638W        W54562  10.734  24.256  49.674
62639W        W54563   7.748  15.250  52.886
62640W        W54564  11.779  18.738  50.162
62641W        W54565  12.249   3.781  53.329
62642W        W54566  16.259  46.179  51.965
62643W        W54567  39.705  20.727  51.966
62644W        W54568   6.765  35.193  51.948
62645W        W54569  15.762  33.234  49.703
62646W        W54570  30.717  24.212  51.077
62647W        W54571  14.262   1.277  50.148
62648W        W54572   6.245  27.715  51.506
62649W        W54573  10.754  34.236  49.704
62650W        W54574  23.726  46.673  51.981
62651W        W54575   7.273  42.190  51.058
62652W        W54576  24.234  31.201  53.774
62653W        W54577  21.230  48.207  52.429
62654W        W54578  19.263  18.726  53.328
62655W        W54579   3.287  18.749  49.697
62656W        W54580  13.240  21.252  53.805
62657W        W54581  42.695  30.742  50.582
62658W        W54582  32.733   7.750  50.617
62659W        W54583  44.205  23.231  53.802
62660W        W54584  19.240  16.734  52.420
62661W        W54585  12.732  48.172  51.068
62662W        W54586  35.222  16.730  51.507
62663W        W54587   2.290  34.721  52.432
62664W        W54588  17.251  36.720  49.703
62665W        W54589  38.190  29.726  52.877
62666W        W54590  39.201  47.192  49.675
62667W        W54591  18.727  36.226  51.073
62668W        W54592  38.697  45.207  49.674
62669W        W54593   9.771  20.233  53.777
62670W        W54594  42.207  42.183  51.053
62671W        W54595  20.243  34.718  52.412
62672W        W54596  45.704  21.258  51.527
62673W        W54597  47.194  13.775  51.034
62674W        W54598  36.696  19.767  51.491
62675W        W54599  28.723   6.276  53.787
62676W        W54600  10.755  25.255  51.074
62677W        W54601  29.736  16.750  53.358
62678W        W54602  17.753  14.751  52.415
62679W        W54603  23.218   0.770  53.809
62680W        W54604  28.707  43.689  49.680
62681W        W54605  43.189  42.680  50.147
62682W        W54606  16.243  31.711  51.054
62683W        W54607  40.206  26.735  50.607
62684W        W54608  35.225  36.219  51.502
62685W        W54609  48.177  26.212  53.338
62686W        W54610  47.714   0.282  50.581
62687W        W54611  31.219  41.223  50.622
62688W        W54612  25.232   9.763  50.604
62689W        W54613  45.709  15.225  51.492
62690W        W54614  21.223  10.272  51.973
62691W        W54615  23.751  29.226  49.675
62692W        W54616  20.717   5.760  51.510
62693W        W54617  35.209  12.241  51.535
62694W        W54618  40.732  47.677  52.419
62695W        W54619   4.263  46.198  51.493
62696W        W54620   8.239  38.200  49.698
62697W        W54621  43.682   5.242  53.344
62698W        W54622  13.235  33.226  52.424
62699W        W54623  38.721  17.754  50.578
62700W        W54624  11.746  48.217  50.141
62701W        W54625  15.227   2.746  50.155
62702W        W54626  46.176  34.697  51.078
62703W        W54627   9.763  34.222  50.147
62704W        W54628  33.714  11.743  51.956
62705W        W54629  26.752  30.220  50.165
62706W        W54630   5.746  34.202  52.872
62707W        W54631  41.697  36.227  52.438
62708W        W54632  10.779  39.218  52.883
62709W        W54633   0.758  40.702  50.616
62710W        W54634  27.740   0.796  53.791
62711W        W54635  34.720   6.782  49.670
62712W        W54636  27.240  26.709  51.052
62713W        W54637  12.761  36.191  51.038
62714W        W54638  23.731  35.206  53.335
62715W        W54639  36.235  29.234  49.706
62716W        W54640  26.228  13.733  51.518
62717W        W54641  30.232   6.770  50.578
62718W        W54642  20.218  31.704  51.975
62719W        W54643   3.761  43.228  53.333
62720W        W54644   3.771  40.221  50.609
62721W        W54645  28.236   4.257  51.991
62722W        W54646  15.759   5.745  52.872
62723W        W54647   3.290  42.224  53.783
62724W        W54648   0.290   1.254  53.789
62725W        W54649  41.703  31.240  50.158
62726W        W54650  34.695   5.274  53.777
62727W        W54651  25.258  10.766  52.903
62728W        W54652  32.732  29.250  51.052
62729W        W54653  33.736  41.211  50.153
62730W        W54654  27.745   5.279  52.419
62731W        W54655   9.769   3.257  50.124
62732W        W54656  21.726  38.202  50.585
62733W        W54657   7.744  36.237  51.063
62734W        W54658  30.246  20.741  51.039
62735W        W54659  29.746   7.738  50.133
62736W        W54660  11.240   7.266  53.352
62737W        W54661  47.219  27.750  50.131
62738W        W54662  24.241   4.759  53.347
62739W        W54663  15.755  48.181  50.139
62740W        W54664  34.739  40.722  52.419
62741W        W54665  44.701  28.720  53.341
62742W        W54666  36.195  26.220  52.903
62743W        W54667   4.783  21.748  51.517
62744W        W54668   4.782  18.258  52.438
62745W        W54669  43.720   6.768  49.701
62746W        W54670  36.235  40.705  53.776
62747W        W54671  19.765  24.243  53.788
62748W        W54672  35.740   3.246  51.987
62749W        W54673   6.282  21.737  51.968
62750W        W54674  27.220  40.230  52.438
62751W        W54675   6.285   1.290  53.787
62752W        W54676  16.258  32.697  52.888
62753W        W54677   8.757  25.258  52.902
62754W        W54678  35.708   7.285  51.037
62755W        W54679  32.198  47.216  51.512
62756W        W54680  34.735  38.713  53.357
62757W        W54681  46.710  36.691  49.690
62758W        W54682  45.212  41.683  53.777
62759W        W54683   1.285  43.726  50.579
62760W        W54684  41.204  18.229  53.774
62761W        W54685   1.252  31.219  50.607
62762W        W54686   6.270  36.237  52.419
62763W        W54687  23.246  30.734  51.948
62764W        W54688  44.180  22.748  51.070
62765W        W54689  11.237   5.753  51.523
62766W        W54690  31.714   3.770  51.971
62767W        W54691  37.705  31.745  51.523
62768W        W54692   1.752  24.218  49.693
62769W        W54693  31.721  46.221  50.581
62770W        W54694  24.747   2.783  53.333
62771W        W54695  21.744  11.767  51.514
62772W        W54696   1.749   5.770  50.134
62773W        W54697  43.697  16.768  50.582
62774W        W54698   5.288  25.227  51.074
62775W        W54699  28.208  18.748  52.865
62776W        W54700  35.225  33.240  52.903
62777W        W54701   3.784  39.702  52.417
62778W        W54702  47.720   8.753  51.041
62779W        W54703   2.779  37.711  51.949
62780W        W54704  22.256  27.239  51.056
62781W        W54705   8.777   0.789  52.420
62782W        W54706  38.201  15.254  51.528
62783W        W54707  47.685  13.234  51.967
62784W        W54708   3.786   6.277  51.952
62785W        W54709  15.262  33.720  53.812
62786W        W54710  45.196  26.719  49.689
62787W        W54711   6.771  28.717  49.683
62788W        W54712  33.221  37.226  53.357
62789W        W54713  34.200  26.736  53.319
62790W        W54714  10.255  22.749  52.868
62791W        W54715  15.766  22.233  53.322
62792W        W54716  32.219  35.232  52.868
62793W        W54717  43.212  37.196  52.875
62794W        W54718   3.791  21.228  49.665
62795W        W54719  13.253   6.777  49.697
62796W        W54720  45.689  43.204  51.055
62797W        W54721  35.735  47.193  53.321
62798W        W54722   9.739  17.222  50.584
62799W        W54723  32.223  45.712  53.321
62800W        W54724  31.704  13.738  51.075
62801W        W54725  15.258  41.718  53.796
62802W        W54726  29.710  31.203  50.121
62803W        W54727  23.742  42.220  50.164
62804W        W54728  13.749  43.215  51.959
62805W        W54729  39.192   4.786  53.806
62806W        W54730  19.733  23.258  52.406
62807W        W54731  41.222   6.253  49.708
62808W        W54732  27.241  36.701  49.698
62809W        W54733  34.695  48.215  51.522
62810W        W54734  30.738   1.786  51.513
62811W        W54735  16.747  16.736  51.519
62812W        W54736  18.738  16.272  53.358
62813W        W54737  26.712  15.756  52.875
62814W        W54738  37.693   1.281  53.321
62815W        W54739  47.695  17.761  51.492
62816W        W54740  27.216  25.214  52.406
62817W        W54741  38.709  11.773  51.972
62818W        W54742  20.751  38.218  50.153
62819W        W54743  19.757   6.262  53.780
62820W        W54744  13.777   1.291  53.809
62821W        W54745  30.745   2.766  52.429
62822W        W54746  35.729  22.754  53.793
62823W        W54747  11.735  27.725  50.596
62824W        W54748  18.722  48.203  52.898
62825W        W54749  39.218  46.694  51.987
62826W        W54750  42.684  14.737  52.904
62827W        W54751  37.206  31.716  53.792
62828W        W54752  38.717  21.234  51.975
62829W        W54753  11.765  18.260  50.129
62830W        W54754  35.219   4.290  51.512
62831W        W54755  41.196  25.747  52.876
62832W        W54756  30.733   2.749  50.582
62833W        W54757   8.251  18.723  51.951
62834W        W54758  11.736  26.732  52.444
62835W        W54759   1.795  23.735  51.984
62836W        W54760  20.735  44.208  49.680
62837W        W54761  33.208   8.776  52.407
62838W        W54762  29.216  34.701  50.150
62839W        W54763   3.745  16.741  50.128
62840W        W54764   3.751  30.203  52.902
62841W        W54765  48.215   6.781  51.978
62842W        W54766  19.257  25.233  51.497
62843W        W54767   9.249  17.259  53.793
62844W        W54768  25.235  47.179  51.048
62845W        W54769  24.740  15.759  50.162
62846W        W54770  23.245   5.781  53.353
62847W        W54771  19.737   2.746  50.617
62848W        W54772  25.754  24.217  50.619
62849W        W54773   1.748   9.783  51.045
62850W        W54774  19.747  31.729  52.877
62851W        W54775   0.261  22.748  51.042
62852W        W54776  46.192  23.254  51.035
62853W        W54777  35.201  20.759  52.888
62854W        W54778  37.236  29.203  50.607
62855W        W54779   9.746  35.729  52.436
62856W        W54780  18.751  44.680  51.992
62857W        W54781  44.199  38.198  51.063
62858W        W54782  30.243  19.263  50.126
62859W        W54783   0.262  40.189  52.880
62860W        W54784  21.729   3.271  50.127
62861W        W54785  47.219   4.749  50.159
62862W        W54786  17.270  13.756  52.860
62863W        W54787  18.247  40.725  53.810
62864W        W54788  22.746  42.187  52.422
62865W        W54789  11.234  29.208  49.680
62866W        W54790  29.748  45.180  53.773
62867W        W54791  25.228  12.765  50.163
62868W        W54792  21.716  43.716  53.341
62869W        W54793  29.210   9.244  50.586
62870W        W54794  39.219  23.240  50.619
62871W        W54795  17.739  21.758  51.057
62872W        W54796  32.730  31.738  49.676
62873W        W54797   1.292  15.741  50.585
62874W        W54798  23.248  22.254  50.609
62875W        W54799  26.212   9.273  53.351
62876W        W54800  26.212  47.218  53.800
62877W        W54801   8.283  11.278  51.038
62878W        W54802  42.729  38.191  50.597
62879W        W54803   5.251  33.216  51.498
62880W        W54804  34.198  16.258  51.491
62881W        W54805  20.737   2.280  52.403
62882W        W54806  21.223  15.742  53.332
62883W        W54807   5.280   5.762  51.050
62884W        W54808   2.747  36.733  52.884
62885W        W54809   2.779   7.764  51.060
62886W        W54810  15.736   6.272  53.804
62887W        W54811  12.259   0.279  51.962
62888W        W54812  30.719   4.282  51.507
62889W        W54813  42.201  20.245  53.795
62890W        W54814   1.790   2.255  51.046
62891W        W54815  41.197  35.235  52.879
62892W        W54816  29.713  42.212  53.352
62893W        W54817  36.736   6.759  49.686
62894W        W54818  10.738  15.271  52.861
62895W        W54819  37.238   9.740  53.818
62896W        W54820  30.244  17.239  49.687
62897W        W54821  42.688  23.721  51.531
62898W        W54822   9.266  30.243  50.580
62899W        W54823  34.231   8.275  50.133
62900W        W54824   9.779  10.248  52.428
62901W        W54825  32.203  21.748  51.967
62902W        W54826  10.764  43.727  51.077
62903W        W54827   7.275  42.212  51.535
62904W        W54828  48.220  11.738  51.518
62905W        W54829  39.718   9.241  52.880
62906W        W54830  16.263  35.708  53.802
62907W        W54831  31.727  47.698  53.813
62908W        W54832   1.265  17.721  51.073
62909W        W54833  30.204  37.734  53.325
62910W        W54834  13.252  25.724  50.132
62911W        W54835  10.244  24.232  49.686
62912W        W54836  30.703  45.222  51.969
62913W        W54837  34.697   4.768  50.612
62914W        W54838  10.238  46.222  52.430
62915W        W54839  47.173  26.723  53.776
62916W        W54840  25.240  41.209  52.898
62917W        W54841  11.274  18.251  51.076
62918W        W54842   0.777  40.722  52.427
62919W        W54843  40.696  13.773  49.698
62920W        W54844   9.257  11.250  52.904
62921W        W54845  32.726  35.199  50.606
62922W        W54846   7.783  16.246  52.875
62923W        W54847  19.237   1.268  51.504
62924W        W54848   2.772  22.229  52.864
62925W        W54849  10.779  28.206  52.885
62926W        W54850  30.207  38.225  52.872
62927W        W54851  19.222  21.748  49.673
62928W        W54852  13.274  22.730  49.694
62929W        W54853  39.225  42.707  52.407
62930W        W54854  22.255   0.779  51.507
62931W        W54855  24.237  31.700  53.350
62932W        W54856  26.228   5.780  53.322
62933W        W54857   2.253  40.193  51.035
62934W        W54858  46.191   9.746  50.165
62935W        W54859  42.702  36.708  51.950
62936W        W54860   1.277  32.240  52.874
62937W        W54861   9.773  13.762  53.329
62938W        W54862   9.746  22.752  53.803
62939W        W54863  44.222  41.715  50.128
62940W        W54864  31.730   4.776  51.510
62941W        W54865   4.283  44.189  52.405
62942W        W54866   9.740  15.271  52.876
62943W        W54867   7.269   5.280  50.597
62944W        W54868  39.733  46.674  50.123
62945W        W54869  22.734  23.259  52.865
62946W        W54870  31.711  24.743  53.773
62947W        W54871  36.738  44.222  51.495
62948W        W54872   4.752  31.248  51.959
62949W        W54873  47.205  39.214  50.608
62950W        W54874  14.264  20.752  51.041
62951W        W54875   3.255  16.753  50.144
62952W        W54876  42.726  31.233  52.892
62953W        W54877  30.225  45.176  51.968
62954W        W54878   4.747  13.733  51.951
62955W        W54879   3.263  16.732  49.665
62956W        W54880  26.737   5.748  52.863
62957W        W54881   6.283  29.717  53.772
62958W        W54882  27.724  41.211  49.696
62959W        W54883  10.238   0.287  51.494
62960W        W54884  23.738  42.682  52.445
62961W        W54885  40.205   0.280  51.039
62962W        W54886  28.214  32.723  51.043
62963W        W54887  32.709  42.689  52.859
62964W        W54888  15.763  23.253  49.676
62965W        W54889  30.737   3.765  51.528
62966W        W54890  29.726  10.257  53.802
62967W        W54891  21.234  15.243  50.137
62968W        W54892  31.231  14.739  53.341
62969W        W54893  26.208   8.253  50.591
62970W        W54894   6.754  11.276  52.889
62971W        W54895  45.195  33.236  51.506
62972W        W54896  26.754  40.686  52.431
62973W        W54897  15.245  40.191  50.130
62974W        W54898  34.233  38.698  53.791
62975W        W54899   7.279  39.716  51.509
62976W        W54900  13.728  36.216  53.792
62977W        W54901  16.726  41.690  52.898
62978W        W54902  48.210  21.747  53.795
62979W        W54903  27.717  16.759  50.616
62980W        W54904   2.289   5.286  53.343
62981W        W54905   0.272  18.249  53.780
62982W        W54906  38.707  36.733  53.345
62983W        W54907  19.742  23.722  50.135
62984W        W54908  46.217  32.709  51.956
62985W        W54909  34.203  22.257  51.059
62986W        W54910   8.779   2.291  51.983
62987W        W54911   5.278  14.755  51.531
62988W        W54912  25.727  30.736  53.806
62989W        W54913  47.694  32.731  49.698
62990W        W54914   1.753  20.746  53.356
62991W        W54915   6.745  30.734  50.162
62992W        W54916  28.242  19.761  51.954
62993W        W54917  45.690  35.193  51.517
62994W        W54918  36.203  40.217  50.606
62995W        W54919  13.235   5.289  51.522
62996W        W54920  19.265  19.737  50.151
62997W        W54921  17.241  12.270  51.035
62998W        W54922   5.285  16.739  52.869
62999W        W54923  43.203  18.240  51.949
63000W        W54924  22.715  15.750  52.441
63001W        W54925  14.759  30.244  50.608
63002W        W54926  12.742   4.764  51.970
63003W        W54927  40.713   7.244  50.157
63004W        W54928  28.745  12.738  53.808
63005W        W54929  48.208  13.755  51.041
63006W        W54930  44.697  13.256  51.989
63007W        W54931  17.730  38.190  53.334
63008W        W54932  40.211   8.263  52.432
63009W        W54933  19.264   2.267  51.516
63010W        W54934  43.712  25.742  50.162
63011W        W54935  21.262  43.694  52.899
63012W        W54936  18.256   0.750  52.446
63013W        W54937  23.255   4.760  53.342
63014W        W54938  29.741   0.766  51.495
63015W        W54939   2.768  48.176  53.361
63016W        W54940  46.207  18.263  50.147
63017W        W54941  13.258  22.250  53.336
63018W        W54942  40.185  41.722  50.614
63019W        W54943  13.751   6.242  52.421
63020W        W54944  27.252  14.762  51.949
63021W        W54945  34.724  36.719  52.872
63022W        W54946  26.719  37.215  52.896
63023W        W54947  44.178  36.720  52.893
63024W        W54948   4.290  44.192  51.986
63025W        W54949  18.768   9.734  51.980
63026W        W54950  30.710   3.758  50.619
63027W        W54951  44.694  16.726  52.871
63028W        W54952  41.191  42.181  53.787
63029W        W54953  31.719   0.260  52.864
63030W        W54954  18.262   2.263  53.349
63031W        W54955  48.205   1.750  53.790
63032W        W54956  17.732  28.725  50.139
63033W        W54957  28.247  15.226  52.443
63034W        W54958  12.747  15.269  51.990
63035W        W54959  37.208  29.732  50.605
63036W        W54960  18.267  44.177  52.903
63037W        W54961  26.716  45.181  52.893
63038W        W54962   8.744   1.260  51.979
63039W        W54963  48.207  10.264  53.804
63040W        W54964  43.179   6.777  53.806
63041W        W54965  12.734  15.739  53.318
63042W        W54966   7.256  10.247  51.975
63043W        W54967  36.232  37.702  52.415
63044W        W54968   4.780  35.732  51.054
63045W        W54969  16.727   8.270  51.507
63046W        W54970  32.216  40.710  50.160
63047W        W54971   3.756  36.724  53.335
63048W        W54972  19.764  45.695  50.134
63049W        W54973  13.250  27.722  52.883
63050W        W54974  11.251   5.251  52.441
63051W        W54975  26.240  39.190  52.884
63052W        W54976  42.193   5.742  53.786
63053W        W54977  43.227  26.254  51.060
63054W        W54978  26.707   1.275  52.405
63055W        W54979  42.717  24.216  52.434
63056W        W54980  48.193  47.696  49.707
63057W        W54981  18.246  41.686  52.413
63058W        W54982  33.213  40.689  53.777
63059W        W54983  33.702  19.728  50.139
63060W        W54984  16.264  40.700  50.137
63061W        W54985   5.750  13.758  51.500
63062W        W54986  35.723  25.238  52.868
63063W        W54987  15.771   7.275  50.129
63064W        W54988  34.204  11.761  51.509
63065W        W54989  43.205  42.696  53.788
63066W        W54990  40.731  26.724  52.420
63067W        W54991  32.707  14.258  52.886
63068W        W54992  37.697  45.214  52.893
63069W        W54993  36.207  21.250  50.601
63070W        W54994  12.266  38.228  51.956
63071W        W54995  26.720  44.693  50.603
63072W        W54996  15.262  23.244  53.812
63073W        W54997  40.229  26.208  51.069
63074W        W54998  13.257  28.204  52.412
63075W        W54999  27.748  38.734  51.530
63076W        W55000  26.748  23.728  52.434
63077W        W55001  22.725  14.256  52.438
63078W        W55002  43.719   5.255  51.974
63079W        W55003  29.701  26.236  52.878
63080W        W55004  43.678  24.230  50.614
63081W        W55005  24.722  29.231  51.521
63082W        W55006  10.250  34.715  51.956
63083W        W55007   9.271  16.255  51.526
63084W        W55008  18.248   4.244  53.772
63085W        W55009  42.222  11.770  53.804
63086W        W55010   7.765  45.706  49.699
63087W        W55011  22.744  18.769  53.776
63088W        W55012  29.245  14.255  51.034
63089W        W55013   7.760  38.194  50.126
63090W        W55014   0.292  38.711  50.124
63091W        W55015  41.221   7.773  53.320
63092W        W55016  39.734  46.675  51.047
63093W        W55017  39.715   9.255  53.782
63094W        W55018  24.219   2.264  53.806
63095W        W55019  44.225  14.263  53.783
63096W        W55020  12.754   5.242  51.079
63097W        W55021  38.686  25.247  52.434
63098W        W55022  39.230  39.186  50.146
63099W        W55023  14.276   3.274  51.074
63100W        W55024  12.255  10.759  51.494
63101W        W55025  22.715  21.725  50.166
63102W        W55026   3.274  32.215  53.791
63103W        W55027  18.240  40.190  53.346
63104W        W55028  14.764  31.734  53.791
63105W        W55029  13.776  24.225  50.148
63106W        W55030  16.771  23.258  50.620
63107W        W55031  32.233  35.714  49.700
63108W        W55032  14.237  38.228  52.902
63109W        W55033   3.779   4.760  51.505
63110W        W55034   7.279  25.243  51.531
63111W        W55035  27.736  18.730  51.077
63112W        W55036   5.759   4.762  52.413
63113W        W55037  28.231  11.748  50.597
63114W        W55038  20.745  10.256  50.132
63115W        W55039  20.749  34.227  52.864
63116W        W55040  25.722  29.703  51.949
63117W        W55041  36.239  17.244  52.872
63118W        W55042  27.719  45.715  51.991
63119W        W55043  15.770  42.714  52.444
63120W        W55044   9.258  42.705  51.062
63121W        W55045  19.224   2.782  53.361
63122W        W55046  18.236  21.719  52.412
63123W        W55047   6.280  33.725  53.773
63124W        W55048  26.721  23.257  52.447
63125W        W55049  43.193  22.231  50.610
63126W        W55050  40.212   2.275  51.973
63127W        W55051   3.270  38.687  52.428
63128W        W55052  42.191   8.272  50.599
63129W        W55053  17.770  44.214  51.056
63130W        W55054  23.232   6.262  52.420
63131W        W55055  37.227  42.216  51.502
63132W        W55056  40.221   4.751  51.056
63133W        W55057  45.220  39.728  53.360
63134W        W55058   4.748  24.238  52.429
63135W        W55059  42.708  44.198  51.058
63136W        W55060   5.283  39.722  53.330
63137W        W55061  38.710  36.238  53.816
63138W        W55062  30.204   9.761  50.154
63139W        W55063  10.243  23.233  51.492
63140W        W55064  36.706   9.783  50.592
63141W        W55065  37.206   5.287  52.867
63142W        W55066  47.184  44.180  53.776
63143W        W55067   6.761  46.721  51.051
63144W        W55068  39.185   9.274  52.900
63145W        W55069   9.762  46.214  52.441
63146W        W55070   3.290  31.699  51.491
63147W        W55071  12.243   0.765  50.128
63148W        W55072  30.215  28.710  51.061
63149W        W55073  32.209  43.680  51.056
63150W        W55074  18.729  45.180  53.783
63151W        W55075   0.757  32.230  53.777
63152W        W55076   2.278  23.249  49.697
63153W        W55077  26.744  15.729  51.981
63154W        W55078  39.199  24.244  53.334
63155W        W55079  44.193  19.251  53.791
63156W        W55080  37.737  13.750  50.121
63157W        W55081  40.221  20.716  50.159
63158W        W55082  34.725   0.790  49.669
63159W        W55083  12.245   7.239  52.432
63160W        W55084  36.223  34.723  52.441
63161W        W55085  13.234   5.751  49.668
63162W        W55086   1.296  11.757  53.809
63163W        W55087  36.731   9.755  52.890
63164W        W55088  30.736   8.783  51.527
63165W        W55089  26.250   6.247  49.679
63166W        W55090  15.239   6.771  50.130
63167W        W55091  34.218  30.218  52.885
63168W        W55092  21.231  47.214  52.901
63169W        W55093  23.223  40.694  50.127
63170W        W55094  13.766  40.722  51.983
63171W        W55095  13.245   9.781  52.403
63172W        W55096  36.195  24.238  51.067
63173W        W55097  16.227  15.241  53.776
63174W        W55098  36.715   5.749  53.790
63175W        W55099   8.266  14.240  50.162
63176W        W55100  32.712  20.245  51.506
63177W        W55101   9.270   0.278  53.793
63178W        W55102   5.251  19.744  51.520
63179W        W55103  37.228  22.714  49.671
63180W        W55104  34.218  43.221  52.433
63181W        W55105   9.774  38.689  53.796
63182W        W55106  33.704  43.710  51.050
63183W        W55107  30.716   5.290  53.317
63184W        W55108  28.738  31.232  50.128
63185W        W55109   2.291   2.751  50.131
63186W        W55110  29.203   3.280  49.690
63187W        W55111  39.204   0.750  52.407
63188W        W55112  29.746   4.776  51.046
63189W        W55113  28.724  34.726  51.502
63190W        W55114  32.728   1.768  50.596
63191W        W55115  34.202   2.787  51.951
63192W        W55116   1.253  28.730  53.338
63193W        W55117  36.214  47.691  52.874
63194W        W55118   8.758   7.284  51.494
63195W        W55119  34.201  30.214  51.517
63196W        W55120   6.757  32.229  52.900
63197W        W55121  33.201  31.209  51.519
63198W        W55122  38.208  36.728  51.960
63199W        W55123  17.247  33.218  50.591
63200W        W55124   8.258   3.762  51.048
63201W        W55125   3.292  41.730  52.884
63202W        W55126  23.254  26.234  50.161
63203W        W55127  21.258  18.224  53.348
63204W        W55128  39.232  41.683  51.041
63205W        W55129  26.728  40.199  51.071
63206W        W55130  30.242  11.768  53.341
63207W        W55131   4.760  46.203  52.875
63208W        W55132  36.208  22.254  51.071
63209W        W55133  46.220  15.764  51.986
63210W        W55134  43.186  18.760  52.436
63211W        W55135  37.694  15.254  50.604
63212W        W55136  20.239   1.778  50.156
63213W        W55137  19.236   9.242  52.893
63214W        W55138   4.746  31.735  53.348
63215W        W55139   8.249  41.701  53.319
63216W        W55140  29.237  22.755  50.609
63217W        W55141  11.755  37.230  50.162
63218W        W55142  33.719  35.198  53.331
63219W        W55143   6.752  44.183  50.148
63220W        W55144  40.688   9.762  53.356
63221W        W55145   3.791   9.769  51.041
63222W        W55146   1.288  43.212  53.361
63223W        W55147  40.687  21.743  49.701
63224W        W55148   5.786  14.741  50.620
63225W        W55149   5.273  25.729  53.348
63226W        W55150  21.264   4.749  53.800
63227W        W55151  46.673  37.732  50.607
63228W        W55152  24.241  40.698  49.687
63229W        W55153  21.240  43.226  50.597
63230W        W55154  19.246  38.703  50.122
63231W        W55155  46.700  30.719  50.604
63232W        W55156   1.248  14.262  50.599
63233W        W55157  38.227   8.251  53.813
63234W        W55158  19.218  44.222  49.678
63235W        W55159   7.258  24.758  53.800
63236W        W55160  23.250  27.252  51.045
63237W        W55161  12.237   0.280  52.890
63238W        W55162  47.697  44.716  50.599
63239W        W55163  41.713  11.270  52.868
63240W        W55164  42.716  15.269  50.144
63241W        W55165  31.708  17.222  53.338
63242W        W55166  39.690  31.199  50.579
63243W        W55167  26.707  21.752  50.152
63244W        W55168  33.243  32.745  50.582
63245W        W55169  41.698  17.757  52.417
63246W        W55170  37.728   5.761  50.149
63247W        W55171  27.210  32.732  52.864
63248W        W55172  34.701  21.246  51.512
63249W        W55173  48.199  27.251  53.360
63250W        W55174  39.199   5.256  51.497
63251W        W55175  21.252  27.711  50.144
63252W        W55176   7.761   4.771  52.893
63253W        W55177  12.767  38.226  52.423
63254W        W55178  18.238  26.708  53.352
63255W        W55179  42.206   3.270  50.166
63256W        W55180   8.269   4.757  51.528
63257W        W55181   3.747   4.243  50.613
63258W        W55182  25.745  38.217  53.318
63259W        W55183   4.755  37.211  51.987
63260W        W55184  46.188   8.277  51.048
63261W        W55185  39.706   8.238  51.988
63262W        W55186  19.720  12.233  53.803
63263W        W55187  16.768  13.750  52.441
63264W        W55188  26.746  22.263  51.040
63265W        W55189  48.194  39.702  51.512
63266W        W55190  48.204  29.222  50.150
63267W        W55191  29.714  19.722  53.332
63268W        W55192   6.262   6.739  51.497
63269W        W55193  18.266  30.212  53.817
63270W        W55194  26.219   6.244  51.046
63271W        W55195  46.684  12.270  49.703
63272W        W55196  42.222  47.222  51.529
63273W        W55197   2.269  44.720  53.341
63274W        W55198   7.272  37.736  53.334
63275W        W55199   8.780  40.690  53.347
63276W        W55200  18.222  38.194  52.876
63277W        W55201  19.219  17.270  53.356
63278W        W55202  18.720  19.734  49.695
63279W        W55203  12.739   6.759  51.062
63280W        W55204  42.685   1.790  49.707
63281W        W55205  11.236  45.220  51.057
63282W        W55206  34.205  29.729  52.409
63283W        W55207  35.213  39.217  51.496
63284W        W55208  21.242   8.264  50.586
63285W        W55209   3.245  22.217  52.427
63286W        W55210  34.201   4.787  51.039
63287W        W55211  18.257  41.722  51.951
63288W        W55212   3.289  30.723  51.048
63289W        W55213  38.226   5.250  50.608
63290W        W55214  12.755  31.736  51.966
63291W        W55215  13.232  42.701  51.535
63292W        W55216  15.758  31.216  51.990
63293W        W55217  19.747  16.737  50.598
63294W        W55218   3.782  41.730  53.777
63295W        W55219  36.713   6.270  52.443
63296W        W55220  21.760  18.737  50.599
63297W        W55221  40.222  32.236  50.604
63298W        W55222   3.279  23.724  52.431
63299W        W55223  43.217   1.293  51.062
63300W        W55224   2.763  16.725  51.525
63301W        W55225   4.761  36.691  50.147
63302W        W55226  43.685  18.266  49.706
63303W        W55227  28.224  35.226  52.448
63304W        W55228  11.269  34.226  51.505
63305W        W55229  25.237   6.766  53.326
63306W        W55230  40.212   4.752  49.683
63307W        W55231  25.220   6.266  53.344
63308W        W55232  34.711  31.242  52.430
63309W        W55233   2.276  46.177  50.156
63310W        W55234   8.277  28.223  53.793
63311W        W55235  27.721  33.217  53.318
63312W        W55236  12.238   0.286  53.783
63313W        W55237  16.730  29.726  50.608
63314W        W55238  47.210  31.208  49.700
63315W        W55239  29.217   0.799  51.971
63316W        W55240  18.751  12.749  50.160
63317W        W55241  47.197  33.714  51.494
63318W        W55242  34.198  14.758  53.358
63319W        W55243  26.223  10.237  51.063
63320W        W55244  12.278   3.273  51.954
63321W        W55245  20.236   0.781  51.041
63322W        W55246  37.236  34.198  49.670
63323W        W55247  30.723  23.758  49.675
63324W        W55248  38.212  41.705  49.689
63325W        W55249  40.203  36.232  51.036
63326W        W55250  28.726  45.177  53.792
63327W        W55251  14.240  35.692  50.582
63328W        W55252  23.723  34.707  50.601
63329W        W55253  42.687  21.260  51.497
63330W        W55254  19.261  23.236  53.807
63331W        W55255  23.722   9.741  53.325
63332W        W55256  40.205  20.756  52.882
63333W        W55257  41.188   4.778  51.492
63334W        W55258  40.732  22.235  51.533
63335W        W55259   9.771  13.760  52.439
63336W        W55260  31.240   0.273  50.592
63337W        W55261  19.737  19.724  53.784
63338W        W55262  13.729  17.727  49.708
63339W        W55263  30.226  11.780  51.507
63340W        W55264   1.758  33.734  52.898
63341W        W55265  37.238  16.273  49.668
63342W        W55266   4.759  42.193  50.580
63343W        W55267  43.707  14.742  53.332
63344W        W55268  20.755  42.217  52.418
63345W        W55269  15.239  13.773  52.898
63346W        W55270  38.224  14.229  53.810
63347W        W55271  24.716  21.718  50.150
63348W        W55272  31.733  44.725  52.864
63349W        W55273  44.192  12.277  51.953
63350W        W55274  14.275  47.702  52.882
63351W        W55275  30.248  35.741  50.154
63352W        W55276  37.692  48.220  52.903
63353W        W55277  12.244  43.200  49.699
63354W        W55278  28.211   2.246  50.159
63355W        W55279  43.208  10.238  53.807
63356W        W55280  10.234  36.710  51.512
63357W        W55281  44.704  28.228  50.161
63358W        W55282  43.184  13.743  51.535
63359W        W55283  18.266  42.721  51.951
63360W        W55284  22.243  38.235  51.964
63361W        W55285  29.228   9.277  52.883
63362W        W55286   0.295  37.727  51.959
63363W        W55287  40.722   7.745  51.988
63364W        W55288  36.218  45.192  53.350
63365W        W55289   2.287  18.749  53.357
63366W        W55290   1.264  22.736  50.127
63367W        W55291  11.743  23.238  53.323
63368W        W55292  31.199  42.701  51.043
63369W        W55293   1.282   0.295  52.414
63370W        W55294  22.232  16.237  53.333
63371W        W55295  27.715  27.744  51.523
63372W        W55296  14.234   4.760  51.070
63373W        W55297  20.764  33.200  50.163
63374W        W55298  44.218   6.754  52.901
63375W        W55299  34.727  43.228  51.068
63376W        W55300  41.730  18.743  50.146
63377W        W55301  42.723  12.245  50.126
63378W        W55302  22.722   7.766  53.326
63379W        W55303   4.756  26.248  50.147
63380W        W55304  37.733  20.755  52.898
63381W        W55305   9.766   6.768  51.526
63382W        W55306  12.752   0.771  50.143
63383W        W55307   5.782  10.238  52.863
63384W        W55308   1.770  31.203  50.162
63385W        W55309  16.770  31.234  50.617
63386W        W55310   9.235  24.247  51.977
63387W        W55311  40.709  31.240  49.673
63388W        W55312  33.215  44.710  51.047
63389W        W55313  18.734  35.735  53.797
63390W        W55314  38.230  35.227  53.347
63391W        W55315   0.760  17.225  53.341
63392W        W55316  47.697  40.731  53.811
63393W        W55317   9.280  16.246  52.889
63394W        W55318  45.705  39.220  51.053
63395W        W55319  45.678  21.253  53.325
63396W        W55320   3.789  43.208  53.781
63397W        W55321  14.740  30.238  49.670
63398W        W55322  47.701  43.226  51.970
63399W        W55323  27.711  23.712  50.616
63400W        W55324  44.220  24.724  51.042
63401W        W55325  11.274  25.234  51.044
63402W        W55326  45.222  25.214  50.146
63403W        W55327   6.278  48.183  51.507
63404W        W55328   7.785  45.219  50.160
63405W        W55329  13.753  36.240  50.606
63406W        W55330  17.770  18.262  49.683
63407W        W55331  48.183  42.195  51.048
63408W        W55332  28.750   3.786  49.692
63409W        W55333  15.255  25.731  50.151
63410W        W55334  16.231  48.209  50.582
63411W        W55335  38.196   0.287  50.603
63412W        W55336  14.256  11.261  50.599
63413W        W55337  40.693  32.709  51.501
63414W        W55338  13.755  22.747  51.060
63415W        W55339  24.740  31.744  51.035
63416W        W55340  32.705  44.682  50.591
63417W        W55341  12.264  35.732  52.422
63418W        W55342   2.768  32.216  50.144
63419W        W55343   3.773  11.762  50.162
63420W        W55344  17.727   8.763  51.073
63421W        W55345  12.758   6.773  53.806
63422W        W55346  46.677   4.263  51.514
63423W        W55347  15.740   5.252  49.670
63424W        W55348  36.714  18.228  50.159
63425W        W55349   1.253  42.209  53.353
63426W        W55350  45.679  29.210  53.325
63427W        W55351  30.744   9.763  52.418
63428W        W55352   9.751  42.682  51.491
63429W        W55353   1.274   7.773  53.328
63430W        W55354  34.704  34.725  51.523
63431W        W55355  38.717   2.273  50.152
63432W        W55356  43.724  29.246  49.665
63433W        W55357  38.688  36.221  51.039
63434W        W55358  14.755  23.219  53.342
63435W        W55359  14.241  45.190  53.354
63436W        W55360   5.268   0.791  53.332
63437W        W55361   9.280  36.203  52.446
63438W        W55362  14.749  18.261  51.038
63439W        W55363  25.710  35.721  53.795
63440W        W55364  18.721   5.741  51.526
63441W        W55365   8.254  44.708  50.577
63442W        W55366  47.716  18.236  53.340
63443W        W55367  40.202   3.287  53.806
63444W        W55368  29.231  29.210  53.811
63445W        W55369  38.698  42.199  49.685
63446W        W55370  23.219  14.763  49.691
63447W        W55371  37.238  28.207  51.980
63448W        W55372  18.234  21.241  51.062
63449W        W55373  16.256  22.222  51.528
63450W        W55374  11.764  43.714  50.127
63451W        W55375  23.236  41.226  51.055
63452W        W55376  45.177   0.773  53.359
63453W        W55377  15.230  35.710  50.135
63454W        W55378  18.753   3.755  52.870
63455W        W55379  42.717   9.282  51.984
63456W        W55380  40.698  13.771  52.875
63457W        W55381  26.732  18.223  53.340
63458W        W55382   1.758  46.216  53.787
63459W        W55383   6.251  47.186  49.683
63460W        W55384   9.266   8.256  52.447
63461W        W55385  23.741  47.200  51.963
63462W        W55386  13.273   3.755  53.355
63463W        W55387  13.242  40.716  51.988
63464W        W55388  30.245   2.271  49.677
63465W        W55389  20.230  39.229  51.956
63466W        W55390  21.725  35.728  50.615
63467W        W55391   3.292  15.761  52.897
63468W        W55392  35.723  20.250  50.155
63469W        W55393   2.774  46.175  51.494
63470W        W55394  27.239  23.230  50.614
63471W        W55395  19.743   3.292  51.499
63472W        W55396   7.253  43.213  50.594
63473W        W55397  37.229  44.689  52.423
63474W        W55398  16.237   2.286  50.132
63475W        W55399  34.716  43.681  51.503
63476W        W55400  38.715  48.206  53.799
63477W        W55401  12.265  16.253  53.345
63478W        W55402  21.217  40.712  51.053
63479W        W55403   2.255  46.696  51.052
63480W        W55404  14.772   0.298  51.056
63481W        W55405  36.703  14.764  50.141
63482W        W55406  29.708  15.272  51.054
63483W        W55407  12.751  45.722  51.990
63484W        W55408  26.208  29.717  53.804
63485W        W55409  46.219  24.226  52.405
63486W        W55410  22.741  33.708  51.957
63487W        W55411  46.204  35.719  50.589
63488W        W55412   8.749   1.285  53.788
63489W        W55413  19.729  46.182  51.978
63490W        W55414  17.728   2.781  52.882
63491W        W55415  41.694  28.721  50.581
63492W        W55416  21.717  32.738  49.703
63493W        W55417  32.236  20.246  53.787
63494W        W55418  22.762  29.226  50.578
63495W        W55419  28.234  36.221  50.584
63496W        W55420  25.751   6.760  51.981
63497W        W55421  12.244  46.685  51.491
63498W        W55422  42.226   1.771  50.618
63499W        W55423  30.731  28.715  52.891
63500W        W55424  26.223  14.743  51.947
63501W        W55425  17.750  32.744  52.891
63502W        W55426  16.255  11.746  51.954
63503W        W55427  10.773  32.708  52.889
63504W        W55428  32.728  30.235  53.338
63505W        W55429  10.236  43.207  51.981
63506W        W55430  25.721  39.233  53.336
63507W        W55431  39.190  35.714  50.598
63508W        W55432  35.709  28.250  49.690
63509W        W55433  22.214  38.215  51.035
63510W        W55434  39.207  11.769  53.347
63511W        W55435  21.231  44.682  50.620
63512W        W55436  45.686  20.258  51.516
63513W        W55437  17.735  29.719  52.439
63514W        W55438  26.219  47.716  53.793
63515W        W55439  21.738  22.247  53.348
63516W        W55440  19.759  10.249  51.510
63517W        W55441   7.739  29.701  49.675
63518W        W55442  31.209   7.766  50.578
63519W        W55443  31.214  31.740  52.902
63520W        W55444  48.175  47.210  49.690
63521W        W55445  10.734  20.725  51.960
63522W        W55446  28.732   7.249  51.491
63523W        W55447   0.265  26.252  51.077
63524W        W55448  46.691  25.729  51.059
63525W        W55449  36.721  22.235  49.697
63526W        W55450  45.705   4.260  52.869
63527W        W55451  26.217  39.711  50.146
63528W        W55452  37.710   1.271  51.041
63529W        W55453  21.244  38.691  51.959
63530W        W55454  23.248   4.787  52.878
63531W        W55455  38.220  14.268  53.336
63532W        W55456  35.206   0.773  53.809
63533W        W55457  44.221  25.245  51.952
63534W        W55458  13.252  25.712  52.420
63535W        W55459  24.223  13.262  51.501
63536W        W55460   8.761  45.724  51.507
63537W        W55461  38.202  10.770  50.621
63538W        W55462   2.770  27.721  53.319
63539W        W55463  18.767   8.755  51.491
63540W        W55464  33.231  27.736  51.977
63541W        W55465  13.243  25.233  50.162
63542W        W55466  28.732  37.227  52.861
63543W        W55467  26.249  21.729  51.502
63544W        W55468  34.213  33.214  53.357
63545W        W55469  14.267  42.710  51.511
63546W        W55470  26.217  31.214  50.158
63547W        W55471  11.274   0.260  51.498
63548W        W55472   4.762  45.187  52.428
63549W        W55473  26.218  46.682  50.160
63550W        W55474  23.735  44.216  49.674
63551W        W55475  29.725  39.234  52.862
63552W        W55476  48.173  35.700  53.335
63553W        W55477   6.271  38.192  52.413
63554W        W55478  24.246  10.778  51.056
63555W        W55479  14.231   7.283  53.341
63556W        W55480  33.704  11.239  53.787
63557W        W55481  23.744  44.194  53.336
63558W        W55482   8.773  15.240  49.697
63559W        W55483  40.713  25.219  51.947
63560W        W55484  24.727   6.780  49.706
63561W        W55485   1.290  28.229  52.414
63562W        W55486  24.723  23.221  53.354
63563W        W55487  33.710  43.180  51.500
63564W        W55488  40.689  16.267  51.987
63565W        W55489  12.242  38.715  52.883
63566W        W55490   2.770   1.266  52.882
63567W        W55491   3.768   4.785  52.872
63568W        W55492  48.179  10.275  51.951
63569W        W55493   7.739  15.243  53.777
63570W        W55494  46.682   2.792  51.531
63571W        W55495  41.189  22.730  50.606
63572W        W55496  35.196  13.729  51.034
63573W        W55497   6.777  44.179  51.982
63574W        W55498  20.219  24.253  50.611
63575W        W55499  21.221   1.755  51.494
63576W        W55500  20.266   5.769  53.350
63577W        W55501   0.254  40.218  53.812
63578W        W55502   4.757  43.682  50.614
63579W        W55503   9.743  33.209  51.066
63580W        W55504  27.753  41.707  50.132
63581W        W55505  25.246  20.764  50.144
63582W        W55506  36.212  32.741  51.061
63583W        W55507  25.252  36.232  53.793
63584W        W55508  36.732  36.701  50.580
63585W        W55509  12.249  20.747  53.357
63586W        W55510  24.255  32.721  51.968
63587W        W55511  39.701  10.275  53.804
63588W        W55512  15.258  30.202  51.962
63589W        W55513  37.220   7.761  51.040
63590W        W55514  10.755  19.234  51.978
63591W        W55515  30.216  21.233  50.143
63592W        W55516   3.775  45.693  53.335
63593W        W55517  31.721  17.225  50.138
63594W        W55518  26.721  41.698  52.407
63595W        W55519  18.759   8.285  53.788
63596W        W55520  15.263   8.240  50.614
63597W        W55521  27.743  29.243  51.984
63598W        W55522  10.772  31.227  53.799
63599W        W55523  43.710  38.231  49.708
63600W        W55524  18.263  28.745  52.868
63601W        W55525   8.778  11.273  53.785
63602W        W55526  48.220  38.219  51.531
63603W        W55527   9.235   5.765  50.609
63604W        W55528  13.267  30.746  51.050
63605W        W55529   2.256  28.704  53.349
63606W        W55530  36.701  31.244  53.808
63607W        W55531  15.259  22.253  50.145
63608W        W55532  25.715  37.691  49.698
63609W        W55533   3.762   5.774  53.326
63610W        W55534  10.748  39.697  53.329
63611W        W55535  47.696  22.247  51.511
63612W        W55536  25.756  18.265  52.441
63613W        W55537   4.265  11.773  52.417
63614W        W55538   1.791  22.751  52.443
63615W        W55539  16.243  37.207  53.346
63616W        W55540  34.243  39.215  51.977
63617W        W55541  11.746  42.187  49.679
63618W        W55542  40.703  16.726  51.058
63619W        W55543  18.239  27.717  51.975
63620W        W55544   4.791  30.715  50.137
63621W        W55545  38.716  45.223  51.496
63622W        W55546  27.713  34.725  50.606
63623W        W55547  14.236  17.266  50.588
63624W        W55548  18.236  45.678  51.491
63625W        W55549   5.277   3.295  51.490
63626W        W55550   2.747  12.770  53.811
63627W        W55551  44.724  28.730  51.075
63628W        W55552  40.728   4.782  50.143
63629W        W55553  33.743  16.755  50.604
63630W        W55554  41.231   6.788  49.681
63631W        W55555  31.221  36.704  49.667
63632W        W55556  28.737  15.753  53.334
63633W        W55557  18.742  41.229  53.795
63634W        W55558  26.754  21.747  53.808
63635W        W55559  37.705  35.707  50.139
63636W        W55560   9.751  24.246  50.127
63637W        W55561   4.269  13.274  49.678
63638W        W55562  27.733  10.760  51.509
63639W        W55563  22.255  11.732  53.345
63640W        W55564  19.246  26.231  50.580
63641W        W55565  18.757   2.789  52.434
63642W        W55566  13.762  33.219  51.508
63643W        W55567  29.739  30.735  51.976
63644W        W55568  13.274  25.728  51.523
63645W        W55569  19.748  13.776  52.870
63646W        W55570  14.762  41.712  52.881
63647W        W55571  18.227  18.245  53.321
63648W        W55572  24.745  39.199  49.703
63649W        W55573  40.702  28.705  52.413
63650W        W55574  34.208  37.723  52.863
63651W        W55575  38.687  15.246  53.803
63652W        W55576  16.754  18.226  51.048
63653W        W55577  39.219   5.257  53.802
63654W        W55578  25.247  10.764  53.318
63655W        W55579  27.254   5.783  50.609
63656W        W55580   7.242  22.729  53.782
63657W        W55581  35.693  18.233  51.519
63658W        W55582   7.738   9.265  50.153
63659W        W55583  44.712  26.215  52.886
63660W        W55584  31.242   8.767  51.504
63661W        W55585  21.221  47.714  53.776
63662W        W55586  23.259  32.718  51.058
63663W        W55587   9.278  37.213  52.894
63664W        W55588   8.737  10.239  51.515
63665W        W55589  20.253   6.258  53.799
63666W        W55590  29.724  18.731  52.886
63667W        W55591  31.244  40.698  51.510
63668W        W55592  21.225  28.240  51.054
63669W        W55593  41.697  39.234  53.323
63670W        W55594  44.203   7.254  51.533
63671W        W55595   3.787  39.729  51.990
63672W        W55596   3.763  46.694  50.583
63673W        W55597   2.750  47.694  53.790
63674W        W55598  28.731  16.759  51.035
63675W        W55599  38.733  39.722  52.890
63676W        W55600  42.686  47.172  52.900
63677W        W55601   7.256   6.778  53.319
63678W        W55602  21.218  42.720  53.318
63679W        W55603  10.747  34.720  51.054
63680W        W55604  16.734  11.242  51.072
63681W        W55605  34.242   5.276  49.677
63682W        W55606  11.755   6.281  50.621
63683W        W55607  33.723  21.249  51.520
63684W        W55608  19.758  45.209  49.693
63685W        W55609  41.696  26.731  51.979
63686W        W55610   4.246  39.710  51.980
63687W        W55611  46.210  16.252  52.433
63688W        W55612   0.267  34.226  51.515
63689W        W55613   9.264  21.745  51.982
63690W        W55614  45.722  26.255  49.671
63691W        W55615   9.235  43.182  51.967
63692W        W55616   0.283   5.247  49.686
63693W        W55617   6.789  11.733  50.592
63694W        W55618  11.749  18.732  53.787
63695W        W55619  35.210  47.179  53.321
63696W        W55620  27.744  35.199  51.067
63697W        W55621  14.227  15.241  53.786
63698W        W55622  24.721  23.249  50.122
63699W        W55623   8.257  47.220  51.035
63700W        W55624  28.710  23.214  50.603
63701W        W55625  39.692  32.199  52.429
63702W        W55626  16.253   4.276  53.793
63703W        W55627  34.737  40.704  53.779
63704W        W55628   3.768  21.233  53.806
63705W        W55629  19.232  39.711  49.689
63706W        W55630  14.250   8.285  53.791
63707W        W55631  42.212  34.199  51.967
63708W        W55632  33.696  44.696  53.805
63709W        W55633  39.196  14.729  52.896
63710W        W55634  14.744   7.755  51.056
63711W        W55635  37.200  13.275  51.526
63712W        W55636  40.709  27.232  51.076
63713W        W55637  33.721  39.704  52.867
63714W        W55638  40.730  40.222  52.433
63715W        W55639  38.690  11.741  53.318
63716W        W55640  18.720  28.718  51.978
63717W        W55641  32.198  43.179  50.578
63718W        W55642  41.188  27.221  52.884
63719W        W55643  39.187  17.762  53.812
63720W        W55644  20.242  20.760  51.077
63721W        W55645  31.701   3.285  52.408
63722W        W55646  43.719  27.738  51.530
63723W        W55647  47.187  40.708  52.439
63724W        W55648   7.756  26.720  53.814
63725W        W55649   9.775  29.204  52.417
63726W        W55650   1.276  12.734  50.614
63727W        W55651  13.760  31.223  53.781
63728W        W55652  40.702  42.712  49.675
63729W        W55653  41.212  29.235  53.318
63730W        W55654  44.211  32.700  51.518
63731W        W55655  45.722   2.289  51.534
63732W        W55656   9.248  16.771  50.121
63733W        W55657  18.739   8.769  51.950
63734W        W55658  18.760  19.755  53.785
63735W        W55659  12.778  39.207  52.443
63736W        W55660  26.710  37.694  51.968
63737W        W55661  33.225  25.245  51.501
63738W        W55662  30.229  25.217  52.403
63739W        W55663   3.746  26.750  51.947
63740W        W55664  26.727  47.718  49.684
63741W        W55665  12.271  25.723  51.071
63742W        W55666   5.269  43.724  52.403
63743W        W55667  27.753  47.210  51.059
63744W        W55668  38.219   8.281  52.445
63745W        W55669  29.248  14.774  50.602
63746W        W55670  34.208  36.718  53.816
63747W        W55671  23.755  42.190  53.777
63748W        W55672  36.235  25.238  51.061
63749W        W55673   8.749  13.770  52.862
63750W        W55674  47.700  25.251  51.076
63751W        W55675  41.188  32.703  52.412
63752W        W55676  20.221   1.270  50.596
63753W        W55677  10.752   4.763  52.425
63754W        W55678   2.281   7.784  49.694
63755W        W55679  31.199  41.190  50.163
63756W        W55680  14.236  15.752  50.580
63757W        W55681   5.751  41.696  52.877
63758W        W55682  14.771  39.206  51.954
63759W        W55683  44.722  42.728  50.150
63760W        W55684  43.704  14.734  53.804
63761W        W55685   0.286  15.757  53.342
63762W        W55686  10.766  11.243  51.064
63763W        W55687   3.262  38.231  51.064
63764W        W55688  47.718  13.729  49.688
63765W        W55689  34.241  30.726  50.154
63766W        W55690   0.275   2.765  50.140
63767W        W55691  31.214   9.259  50.127
63768W        W55692   2.764  28.246  50.612
63769W        W55693  31.743   9.245  50.578
63770W        W55694   8.749  47.708  51.534
63771W        W55695  18.754   8.240  50.578
63772W        W55696  34.194  38.231  49.677
63773W        W55697  46.716  11.243  51.963
63774W        W55698  24.739  20.718  52.865
63775W        W55699  47.205   4.250  51.043
63776W        W55700   1.770  10.777  51.035
63777W        W55701  13.266  46.175  51.985
63778W        W55702  46.223  41.708  50.130
63779W        W55703  16.260  11.276  52.875
63780W        W55704  22.755  32.741  53.356
63781W        W55705  31.224  10.778  53.812
63782W        W55706  47.221  40.222  50.619
63783W        W55707  23.224  40.715  52.877
63784W        W55708  29.251  38.719  53.797
63785W        W55709  48.207  17.746  50.126
63786W        W55710   0.752  12.255  53.780
63787W        W55711  22.741  47.206  53.360
63788W        W55712  34.727  32.223  51.491
63789W        W55713  26.750   1.781  51.497
63790W        W55714  22.222  46.200  49.673
63791W        W55715  22.237   9.754  53.778
63792W        W55716  11.773  41.689  51.510
63793W        W55717  27.244  46.198  50.600
63794W        W55718  10.246  29.734  52.417
63795W        W55719   3.746  20.730  50.618
63796W        W55720  44.708   5.247  50.143
63797W        W55721   4.250  32.229  53.331
63798W        W55722  19.719  26.231  53.815
63799W        W55723  37.723  35.710  53.781
63800W        W55724  33.717  21.234  51.069
63801W        W55725  29.716   1.284  51.037
63802W        W55726  24.731   6.275  53.774
63803W        W55727   5.258  11.774  52.882
63804W        W55728  41.706  45.210  53.340
63805W        W55729  18.740   1.294  50.150
63806W        W55730  44.682  16.754  53.799
63807W        W55731  13.763  44.710  49.684
63808W        W55732   2.261  41.220  50.620
63809W        W55733  22.229  27.212  51.522
63810W        W55734  24.720  30.212  53.321
63811W        W55735  30.700  15.725  51.510
63812W        W55736  33.231   7.283  51.523
63813W        W55737  46.205   8.237  51.982
63814W        W55738  41.694  46.710  53.798
63815W        W55739  29.221  19.767  53.339
63816W        W55740  23.255  17.235  51.982
63817W        W55741  32.701  40.230  52.403
63818W        W55742  35.235  22.255  51.992
63819W        W55743  38.214  25.225  51.061
63820W        W55744  35.712  44.199  52.871
63821W        W55745  11.232  12.235  53.798
63822W        W55746  45.219   8.770  53.786
63823W        W55747  34.230  19.752  51.961
63824W        W55748  38.223  30.244  51.045
63825W        W55749  24.256   7.751  51.526
63826W        W55750  31.721  35.192  49.678
63827W        W55751  37.694  35.711  51.047
63828W        W55752  10.261  11.746  51.047
63829W        W55753  19.228  34.240  49.667
63830W        W55754   8.275  44.711  52.414
63831W        W55755   3.773  45.210  53.340
63832W        W55756  44.220   1.771  49.699
63833W        W55757  42.711   9.279  52.424
63834W        W55758   2.264  36.229  51.038
63835W        W55759  26.722  20.747  51.076
63836W        W55760  46.200  37.208  49.669
63837W        W55761  44.717  48.215  50.149
63838W        W55762  27.214  37.710  50.578
63839W        W55763  35.699  33.733  51.067
63840W        W55764  20.259  47.693  50.135
63841W        W55765  47.181   3.268  53.790
63842W        W55766   2.794   9.238  51.991
63843W        W55767  33.218   9.779  53.813
63844W        W55768   0.298   4.268  52.874
63845W        W55769  32.740  36.738  53.352
63846W        W55770  26.247  18.762  50.612
63847W        W55771  45.683  33.725  53.809
63848W        W55772  15.763  39.729  51.991
63849W        W55773   9.752  40.201  52.897
63850W        W55774   6.257  16.750  51.985
63851W        W55775  45.714  24.223  50.615
63852W        W55776  35.218  15.259  51.057
63853W        W55777  47.697  28.212  51.986
63854W        W55778  10.743  39.712  51.055
63855W        W55779  43.186  10.741  49.680
63856W        W55780  17.725  19.232  52.861
63857W        W55781  39.727  28.713  49.673
63858W        W55782  23.258  36.702  51.501
63859W        W55783  20.218  20.730  49.665
63860W        W55784  32.225  40.219  51.968
63861W        W55785  34.711   8.246  53.815
63862W        W55786  33.732  37.225  51.963
63863W        W55787  11.239  25.250  51.980
63864W        W55788  17.728  43.706  50.158
63865W        W55789  25.210   2.263  51.034
63866W        W55790  22.226  47.175  53.332
63867W        W55791  13.260  42.711  51.067
63868W        W55792  29.224   2.263  50.156
63869W        W55793  35.729  42.707  50.130
63870W        W55794  46.709  20.735  51.974
63871W        W55795  19.252   0.285  52.405
63872W        W55796   1.777  24.221  51.042
63873W        W55797  29.722  16.242  52.448
63874W        W55798   6.241  12.264  52.415
63875W        W55799  46.676  36.224  52.419
63876W        W55800  33.722  29.228  51.493
63877W        W55801  28.726  28.239  52.889
63878W        W55802  47.200  33.212  52.888
63879W        W55803  12.771  47.193  50.160
63880W        W55804  38.215   6.788  49.709
63881W        W55805  36.697  27.231  52.409
63882W        W55806  42.185  42.705  51.958
63883W        W55807  34.730  42.204  51.054
63884W        W55808  38.214   9.259  52.874
63885W        W55809  13.244   2.260  52.442
63886W        W55810  22.230  33.716  49.699
63887W        W55811  38.199  22.738  51.524
63888W        W55812  25.752  22.242  51.975
63889W        W55813  35.230  31.706  52.405
63890W        W55814  19.266  45.678  51.045
63891W        W55815  47.716  22.245  52.428
63892W        W55816  31.731  40.193  50.149
63893W        W55817  39.211  16.727  50.143
63894W        W55818  19.228  15.749  50.140
63895W        W55819  32.715  30.723  51.519
63896W        W55820  14.745  15.234  53.318
63897W        W55821  19.745  40.226  52.873
63898W        W55822  23.223   3.785  52.431
63899W        W55823  43.192  32.233  50.578
63900W        W55824   4.766   3.284  51.949
63901W        W55825  32.730  48.185  49.682
63902W        W55826   0.296   3.252  52.905
63903W        W55827  13.734  47.201  52.431
63904W        W55828  46.694  20.752  51.067
63905W        W55829  44.185  47.681  49.697
63906W        W55830  43.205  27.731  50.587
63907W        W55831  20.253   0.294  53.809
63908W        W55832  42.182  30.245  51.066
63909W        W55833  41.210   8.236  53.350
63910W        W55834  24.717  20.761  51.963
63911W        W55835  38.211  36.209  49.674
63912W        W55836  37.199  21.714  53.799
63913W        W55837  24.728   2.256  53.324
63914W        W55838  40.693   0.770  52.423
63915W        W55839  14.774  41.717  53.320
63916W        W55840  46.721  31.738  50.163
63917W        W55841  26.752  25.215  49.704
63918W        W55842  30.204  17.271  52.422
63919W        W55843  16.233  16.258  51.048
63920W        W55844  41.728  21.239  52.439
63921W        W55845   0.292  10.766  49.671
63922W        W55846   6.760  29.228  49.672
63923W        W55847  36.211  26.230  51.973
63924W        W55848  33.240  38.210  52.894
63925W        W55849  31.708  40.731  50.608
63926W        W55850   1.787  31.234  52.902
63927W        W55851  44.187   7.759  51.038
63928W        W55852  14.734   2.787  50.609
63929W        W55853  43.695  43.193  50.145
63930W        W55854  17.736  29.217  50.141
63931W        W55855  28.232  12.232  52.879
63932W        W55856  14.257  25.232  52.424
63933W        W55857  33.203  45.689  49.696
63934W        W55858   4.289   5.280  53.793
63935W        W55859  39.730  29.709  50.123
63936W        W55860  32.721  32.226  51.954
63937W        W55861  27.748   0.771  53.361
63938W        W55862  11.269  16.768  53.358
63939W        W55863  47.178  26.242  52.874
63940W        W55864  11.250  11.766  52.430
63941W        W55865   0.786  26.734  49.671
63942W        W55866  44.225  47.713  53.816
63943W        W55867  43.696  29.249  51.533
63944W        W55868  21.224   0.255  53.338
63945W        W55869  45.195  30.732  52.425
63946W        W55870  34.198  47.193  50.602
63947W        W55871   8.274  42.222  51.505
63948W        W55872   3.268  24.243  51.034
63949W        W55873  27.723  34.710  52.423
63950W        W55874   9.770  19.245  53.797
63951W        W55875  42.702   6.789  52.418
63952W        W55876  19.232  41.186  52.426
63953W        W55877  13.731   2.763  52.865
63954W        W55878   4.786  42.703  52.447
63955W        W55879  37.214  21.723  50.124
63956W        W55880  33.202   5.789  53.338
63957W        W55881  16.266  29.738  51.509
63958W        W55882  11.247  45.715  52.425
63959W        W55883  27.208  20.240  52.873
63960W        W55884  36.724  33.213  51.964
63961W        W55885  25.735  43.208  52.864
63962W        W55886   1.277  42.187  52.405
63963W        W55887  47.214  26.216  51.512
63964W        W55888  31.729  29.720  49.672
63965W        W55889  29.248  40.195  53.775
63966W        W55890  16.263   2.758  53.352
63967W        W55891   0.799  37.211  50.598
63968W        W55892  48.176  30.701  53.356
63969W        W55893  34.242  13.247  51.531
63970W        W55894  19.259  35.212  49.680
63971W        W55895  31.719   5.768  53.328
63972W        W55896  31.248  48.193  53.356
63973W        W55897  45.209  20.217  50.140
63974W        W55898  40.197   5.759  50.164
63975W        W55899   5.746  23.760  52.422
63976W        W55900  35.223  38.223  53.334
63977W        W55901  34.741  30.249  51.535
63978W        W55902  30.220  32.736  52.875
63979W        W55903  16.752  33.720  51.985
63980W        W55904  33.703  29.213  51.040
63981W        W55905  43.690   9.756  52.412
63982W        W55906  26.738  32.223  53.359
63983W        W55907  31.709  34.196  50.606
63984W        W55908   3.793  10.266  53.327
63985W        W55909   6.252  13.739  49.708
63986W        W55910   0.757   2.275  53.791
63987W        W55911  23.221  17.245  52.424
63988W        W55912  28.250  27.212  51.968
63989W        W55913  21.755   2.766  51.953
63990W        W55914  16.260  37.720  53.780
63991W        W55915  29.727  12.263  50.121
63992W        W55916   8.781   0.756  51.076
63993W        W55917  29.741  33.715  53.344
63994W        W55918  40.200  18.225  52.890
63995W        W55919  47.703  43.223  52.427
63996W        W55920  10.782  29.229  53.330
63997W        W55921  19.748  44.682  53.336
63998W        W55922  33.724   0.774  49.704
63999W        W55923  37.219  30.710  50.138
64000W        W55924  10.274  39.194  53.357
64001W        W55925  44.220  37.197  53.784
64002W        W55926   3.765  24.718  53.780
64003W        W55927  29.724  31.744  49.688
64004W        W55928  36.206   9.247  51.973
64005W        W55929  19.261   2.278  53.800
64006W        W55930  47.204  32.205  52.448
64007W        W55931  16.762  24.226  52.415
64008W        W55932   2.295  35.738  53.344
64009W        W55933   0.764   0.750  51.965
64010W        W55934  14.229  21.752  50.145
64011W        W55935   6.782  22.262  52.898
64012W        W55936  42.218  30.208  50.607
64013W        W55937   8.237  37.719  51.968
64014W        W55938  44.711  12.753  53.336
64015W        W55939  15.227   3.774  53.772
64016W        W55940  25.749  17.724  51.957
64017W        W55941   1.277   2.792  51.501
64018W        W55942  33.224  19.229  52.870
64019W        W55943   9.758   4.776  52.446
64020W        W55944  35.697  26.710  53.805
64021W        W55945   1.750  25.217  53.809
64022W        W55946  45.698  13.256  50.616
64023W        W55947   2.755  35.234  50.140
64024W        W55948  25.748  15.730  53.809
64025W        W55949  21.764  47.702  53.332
64026W        W55950  21.748  24.721  52.415
64027W        W55951  14.267  19.224  50.161
64028W        W55952  29.729  26.214  50.128
64029W        W55953  43.724  31.235  51.949
64030W        W55954  11.249   7.760  53.325
64031W        W55955  33.720   6.254  52.441
64032W        W55956  12.251  25.243  53.337
64033W        W55957  13.263  35.725  51.071
64034W        W55958   0.789  34.721  53.803
64035W        W55959  37.703  33.216  52.868
64036W        W55960   3.257  30.720  50.582
64037W        W55961   1.763  41.206  53.791
64038W        W55962  12.759  37.700  53.801
64039W        W55963  23.223  24.716  53.331
64040W        W55964   8.778   8.261  52.883
64041W        W55965  17.736  19.250  51.072
64042W        W55966   3.786  38.215  52.872
64043W        W55967   2.781  25.745  51.044
64044W        W55968   0.755  13.236  50.581
64045W        W55969  37.196   9.259  51.493
64046W        W55970  39.710   5.278  51.520
64047W        W55971  35.729  27.712  52.875
64048W        W55972  14.262  30.216  50.605
64049W        W55973   3.261   5.243  53.797
64050W        W55974  24.214  44.717  53.803
64051W        W55975  15.733  19.736  51.957
64052W        W55976   1.776  46.217  49.686
64053W        W55977  31.741   6.788  50.152
64054W        W55978  38.236  32.697  51.520
64055W        W55979  47.209  44.692  51.526
64056W        W55980  32.712  14.748  53.345
64057W        W55981  20.730  37.221  53.776
64058W        W55982  29.720   8.773  50.132
64059W        W55983   5.267  47.687  51.526
64060W        W55984  37.214  47.716  49.684
64061W        W55985   8.763  14.256  50.586
64062W        W55986  16.235   0.278  52.880
64063W        W55987   0.262  33.735  53.359
64064W        W55988  39.193  37.229  53.814
64065W        W55989  26.232  28.205  51.038
64066W        W55990  32.203  31.722  51.963
64067W        W55991  48.191  32.739  53.329
64068W        W55992   5.287  47.675  50.136
64069W        W55993  37.216   8.268  52.895
64070W        W55994  32.215  40.232  50.135
64071W        W55995  34.212  40.731  53.319
64072W        W55996  31.238  27.244  52.431
64073W        W55997  42.211  34.723  53.814
64074W        W55998  16.229  31.200  50.602
64075W        W55999  48.184  13.732  52.409
64076W        W56000  44.705  37.692  51.500
64077W        W56001   6.784  46.187  52.902
64078W        W56002   5.756   6.258  51.053
64079W        W56003  21.226  27.720  51.036
64080W        W56004   8.285  40.230  51.063
64081W        W56005  37.689  22.729  51.972
64082W        W56006   7.280   4.258  50.621
64083W        W56007  19.745   6.287  50.123
64084W        W56008   2.756   2.746  50.142
64085W        W56009  41.703  38.701  51.514
64086W        W56010  23.715  26.232  51.976
64087W        W56011  12.732  17.757  52.895
64088W        W56012   1.766  26.709  52.895
64089W        W56013  44.196   9.272  53.347
64090W        W56014  43.683   0.251  51.499
64091W        W56015  21.728   7.752  53.329
64092W        W56016  43.723  38.217  52.860
64093W        W56017  46.188   5.272  52.877
64094W        W56018  11.266  17.243  52.902
64095W        W56019  14.769  27.744  52.447
64096W        W56020   1.261  10.768  51.517
64097W        W56021  16.262  28.752  52.872
64098W        W56022  22.249  12.268  53.347
64099W        W56023  21.731  48.204  50.582
64100W        W56024  32.698  17.227  51.046
64101W        W56025   0.256  30.247  49.698
64102W        W56026  26.226  44.195  51.061
64103W        W56027   6.284  17.239  52.420
64104W        W56028  36.203  31.714  51.509
64105W        W56029  46.179   7.245  49.704
64106W        W56030   3.750  47.681  52.859
64107W        W56031  15.251  15.241  52.432
64108W        W56032  30.739  30.748  51.974
64109W        W56033  40.191  13.242  49.678
64110W        W56034   8.770  15.738  52.442
64111W        W56035   1.273  32.226  53.796
64112W        W56036  20.756   9.784  50.601
64113W        W56037  43.205  27.217  52.438
64114W        W56038  18.266  13.264  50.598
64115W        W56039  42.685  12.275  52.886
64116W        W56040  23.738   3.248  49.707
64117W        W56041  35.211  27.239  51.071
64118W        W56042  17.261   7.284  50.579
64119W        W56043  28.252   3.294  51.491
64120W        W56044  29.205   4.276  52.429
64121W        W56045   6.258  38.195  51.522
64122W        W56046   9.260  44.698  50.152
64123W        W56047  47.217   7.268  50.159
64124W        W56048  37.222   0.284  51.495
64125W        W56049  26.739  13.773  52.444
64126W        W56050  35.202   4.260  53.800
64127W        W56051  35.222  46.222  50.145
64128W        W56052  43.216  44.198  51.528
64129W        W56053  31.235  16.224  50.165
64130W        W56054   9.748   5.242  53.344
64131W        W56055   5.247  35.234  52.415
64132W        W56056  16.231  28.706  51.985
64133W        W56057  20.738  35.229  52.904
64134W        W56058  32.700   2.292  51.956
64135W        W56059   8.266  15.244  50.582
64136W        W56060  20.251  45.685  51.975
64137W        W56061  31.246  17.244  51.991
64138W        W56062   6.258   1.278  52.440
64139W        W56063  11.746  41.188  49.666
64140W        W56064  30.708  26.248  50.597
64141W        W56065  39.191  42.207  50.577
64142W        W56066  48.171  39.205  51.530
64143W        W56067  41.190  17.730  49.685
64144W        W56068  14.754  10.776  52.866
64145W        W56069   7.283  47.181  51.045
64146W        W56070   3.252   2.761  51.060
64147W        W56071   2.792  41.692  49.665
64148W        W56072  38.229  11.744  52.442
64149W        W56073  19.239   0.775  49.697
64150W        W56074  15.271   7.285  52.442
64151W        W56075  12.765  21.241  50.130
64152W        W56076  37.738  36.737  53.792
64153W        W56077  12.770   3.270  51.061
64154W        W56078  41.197  42.189  49.691
64155W        W56079  18.266  12.731  52.404
64156W        W56080  16.273  33.727  51.077
64157W        W56081   2.788  39.726  51.510
64158W        W56082   0.789  35.234  51.076
64159W        W56083  35.735  31.248  50.158
64160W        W56084  39.691  39.721  52.442
64161W        W56085   5.750  46.697  52.888
64162W        W56086   8.282  22.742  49.686
64163W        W56087   6.750  32.712  52.875
64164W        W56088  19.733   2.756  49.691
64165W        W56089   2.251  15.734  52.440
64166W        W56090  36.698   2.759  49.671
64167W        W56091  23.221   9.781  51.512
64168W        W56092  15.262  25.757  51.982
64169W        W56093  25.730  47.210  53.791
64170W        W56094  10.278  44.686  52.444
64171W        W56095  30.716   8.245  51.067
64172W        W56096   6.760  13.245  53.321
64173W        W56097  24.724  45.203  51.524
64174W        W56098  29.218  19.221  53.323
64175W        W56099  18.748  32.722  50.145
64176W        W56100  23.733  25.251  53.325
64177W        W56101  13.238   3.773  51.498
64178W        W56102   6.244  18.733  53.318
64179W        W56103  13.269  37.727  50.601
64180W        W56104  14.255  15.231  52.895
64181W        W56105  25.713  39.696  51.038
64182W        W56106  43.685  22.759  50.131
64183W        W56107   7.254  27.728  50.121
64184W        W56108  35.713  29.232  52.423
64185W        W56109  21.719  28.742  50.138
64186W        W56110  23.744   4.780  53.780
64187W        W56111  45.184  37.197  49.699
64188W        W56112  18.265  20.734  51.984
64189W        W56113  39.222  35.698  53.323
64190W        W56114  19.265  28.747  51.508
64191W        W56115  38.232  42.684  51.958
64192W        W56116   4.287  20.748  50.585
64193W        W56117  14.269   9.245  49.707
64194W        W56118  42.718   2.251  52.876
64195W        W56119  32.736  30.726  51.949
64196W        W56120   9.764  21.252  51.490
64197W        W56121  12.239  10.265  52.876
64198W        W56122   8.783  22.253  51.948
64199W        W56123  26.234  11.780  52.886
64200W        W56124  21.738   5.281  51.066
64201W        W56125   2.267  32.701  51.986
64202W        W56126  40.202   7.274  51.063
64203W        W56127  36.700   5.257  50.617
64204W        W56128  44.208  16.249  50.600
64205W        W56129  20.741  34.203  51.988
64206W        W56130  38.188  46.707  52.431
64207W        W56131  22.718  41.209  51.990
64208W        W56132   5.753  20.253  53.813
64209W        W56133  40.705  16.256  53.357
64210W        W56134  12.736  39.232  53.352
64211W        W56135  25.226  45.199  51.533
64212W        W56136   2.289  42.203  52.405
64213W        W56137  11.268  34.694  50.611
64214W        W56138  31.747  20.252  49.683
64215W        W56139   9.269  46.178  53.331
64216W        W56140  39.685  16.766  49.703
64217W        W56141  29.222  18.750  53.812
64218W        W56142  10.253  36.228  52.897
64219W        W56143   6.264  31.731  51.962
64220W        W56144  39.706  10.246  50.126
64221W        W56145  47.176  14.273  52.865
64222W        W56146  37.693  34.197  51.958
64223W        W56147   2.758   8.263  53.775
64224W        W56148  25.225  33.706  53.318
64225W        W56149  15.744  20.228  52.902
64226W        W56150  18.767  47.685  53.792
64227W        W56151  17.240  23.225  52.440
64228W        W56152  42.208  29.221  50.611
64229W        W56153  34.229  34.738  53.347
64230W        W56154  44.200  19.760  52.885
64231W        W56155  26.214  48.177  51.963
64232W        W56156  38.723  33.744  50.583
64233W        W56157  23.726   3.280  53.318
64234W        W56158  15.255   7.751  51.960
64235W        W56159   5.273  11.279  52.863
64236W        W56160  15.733   9.266  51.059
64237W        W56161  26.711  24.737  51.502
64238W        W56162  35.717  42.708  52.889
64239W        W56163  38.717  13.763  53.782
64240W        W56164  10.237  39.694  51.078
64241W        W56165  40.724  37.234  50.157
64242W        W56166  33.204  28.731  51.976
64243W        W56167   7.269  35.713  50.142
64244W        W56168   3.249   4.760  49.666
64245W        W56169  15.267  46.212  51.531
64246W        W56170  22.251  14.230  51.490
64247W        W56171  17.738  33.201  51.976
64248W        W56172  20.750   4.761  50.123
64249W        W56173  18.228  38.716  52.416
64250W        W56174  22.249   2.793  49.671
64251W        W56175   0.271   5.770  52.438
64252W        W56176  19.250  31.241  51.510
64253W        W56177  26.727  25.228  51.976
64254W        W56178  41.225   2.792  52.900
64255W        W56179  11.247   5.743  53.330
64256W        W56180  18.733  39.706  53.784
64257W        W56181  11.280  16.756  52.896
64258W        W56182  28.735   3.771  52.447
64259W        W56183   5.787  37.713  53.361
64260W        W56184  28.234  39.190  50.154
64261W        W56185  20.234  22.223  51.036
64262W        W56186  47.195   0.256  53.335
64263W        W56187  22.750  13.728  50.151
64264W        W56188  47.178  15.267  52.867
64265W        W56189  29.230  25.238  50.135
64266W        W56190  32.712  29.745  53.814
64267W        W56191   0.753  13.763  53.329
64268W        W56192  45.223  29.743  50.140
64269W        W56193  41.683  25.244  53.327
64270W        W56194   9.255  33.231  50.142
64271W        W56195  45.706   5.743  52.871
64272W        W56196  28.734   4.289  50.140
64273W        W56197   6.750  42.683  52.903
64274W        W56198  30.715  20.223  53.334
64275W        W56199   4.768  23.261  53.790
64276W        W56200  18.241  28.712  53.801
64277W        W56201  38.699   5.753  52.891
64278W        W56202  42.686   5.776  49.686
64279W        W56203  29.720  47.700  51.983
64280W        W56204  45.210  26.745  50.129
64281W        W56205   8.254  11.247  52.874
64282W        W56206  27.212  34.703  51.946
64283W        W56207  43.227  21.753  50.125
64284W        W56208  13.764   8.241  49.692
64285W        W56209  39.195  38.710  53.785
64286W        W56210  14.275   7.254  52.872
64287W        W56211  48.183  41.727  51.957
64288W        W56212  16.769  37.201  51.057
64289W        W56213  12.749   6.265  51.504
64290W        W56214   4.285   4.279  51.529
64291W        W56215   4.286  38.201  52.440
64292W        W56216  41.202  30.231  52.890
64293W        W56217   5.744  10.281  50.154
64294W        W56218   1.767  14.774  50.149
64295W        W56219   0.755  45.690  51.061
64296W        W56220   9.262  16.750  53.774
64297W        W56221  29.217  38.202  52.443
64298W        W56222  17.243  12.741  50.596
64299W        W56223  41.191  40.705  52.407
64300W        W56224  23.741  47.681  53.809
64301W        W56225  31.716   8.246  53.338
64302W        W56226  38.208  21.743  50.134
64303W        W56227   3.748  37.207  50.156
64304W        W56228   7.286  31.226  49.684
64305W        W56229  33.218   9.757  51.534
64306W        W56230  40.697  44.709  50.155
64307W        W56231   1.280  36.218  53.358
64308W        W56232  33.206  23.242  52.897
64309W        W56233   8.264   3.284  49.698
64310W        W56234  42.707  23.717  51.972
64311W        W56235  36.235   0.786  51.965
64312W        W56236  23.215  34.708  51.507
64313W        W56237  15.237  32.211  50.157
64314W        W56238  26.734  17.751  52.422
64315W        W56239  24.739  12.279  52.901
64316W        W56240  27.253  18.267  49.709
64317W        W56241  35.708  18.233  51.983
64318W        W56242  13.766  42.726  51.978
64319W        W56243  39.231  34.724  52.891
64320W        W56244  21.231  45.221  51.968
64321W        W56245  31.725  29.215  51.967
64322W        W56246  34.241  26.752  51.502
64323W        W56247  33.730  25.251  52.873
64324W        W56248  28.215  40.729  49.682
64325W        W56249  31.200  23.730  53.327
64326W        W56250   6.765   3.251  50.162
64327W        W56251   7.240  33.744  49.666
64328W        W56252  39.721  27.732  51.052
64329W        W56253  40.201  26.220  51.525
64330W        W56254  42.220   4.755  51.956
64331W        W56255  46.677  40.725  50.123
64332W        W56256  25.754  13.762  51.978
64333W        W56257  41.702  20.223  53.359
64334W        W56258  28.708  27.254  53.348
64335W        W56259  30.237   7.755  50.608
64336W        W56260   1.792  13.229  51.989
64337W        W56261  43.719  32.725  52.893
64338W        W56262  13.269  39.725  51.493
64339W        W56263  21.726  33.245  53.799
64340W        W56264  13.260  20.225  51.036
64341W        W56265  17.731  18.759  53.789
64342W        W56266   4.244   5.757  50.142
64343W        W56267  47.678  10.242  51.498
64344W        W56268  24.743   6.769  53.322
64345W        W56269   6.264  25.255  50.139
64346W        W56270  28.209   6.244  49.691
64347W        W56271  22.236  46.719  51.036
64348W        W56272  15.263  31.719  50.587
64349W        W56273  15.268   1.758  50.128
64350W        W56274  39.197  34.735  53.319
64351W        W56275  24.732  30.244  51.071
64352W        W56276  40.694  37.697  50.146
64353W        W56277  48.216  24.238  49.670
64354W        W56278  42.703   0.764  53.792
64355W        W56279   2.787  42.206  51.494
64356W        W56280   5.764  22.246  53.808
64357W        W56281  30.219  20.220  53.356
64358W        W56282  47.677  10.759  51.073
64359W        W56283  48.196   9.747  52.885
64360W        W56284  15.763   4.244  51.957
64361W        W56285  15.247  33.715  50.144
64362W        W56286  22.223  45.179  50.166
64363W        W56287   2.781  16.725  50.599
64364W        W56288  32.741  44.214  49.709
64365W        W56289  41.704  26.250  52.864
64366W        W56290  42.191   6.782  51.950
64367W        W56291   7.784   3.280  49.708
64368W        W56292   1.265  14.270  52.901
64369W        W56293  31.706  45.692  50.126
64370W        W56294  29.740  18.262  50.592
64371W        W56295  44.218  42.191  51.056
64372W        W56296  35.199  45.692  51.967
64373W        W56297  36.220  12.770  51.050
64374W        W56298  11.256   2.282  51.973
64375W        W56299   8.286  16.762  50.161
64376W        W56300   2.746  38.216  52.885
64377W        W56301  28.217   3.294  53.781
64378W        W56302  31.241   5.290  52.409
64379W        W56303  33.726  33.736  52.882
64380W        W56304  37.708  14.239  51.034
64381W        W56305  19.724  37.190  53.356
64382W        W56306  13.772  34.703  49.709
64383W        W56307  20.263  19.222  53.342
64384W        W56308   9.273  10.283  51.038
64385W        W56309   5.762  32.214  52.416
64386W        W56310  47.672  12.768  52.412
64387W        W56311  17.767  16.245  51.515
64388W        W56312  26.235  34.726  52.868
64389W        W56313  23.715   4.770  51.972
64390W        W56314  22.730  43.698  52.405
64391W        W56315  18.768  28.724  50.599
64392W        W56316  34.733   9.236  49.685
64393W        W56317  10.242  31.212  50.123
64394W        W56318  29.205  21.246  50.611
64395W        W56319   5.773  33.233  51.066
64396W        W56320  31.247  42.695  52.870
64397W        W56321  44.680  15.753  51.038
64398W        W56322   3.781   2.283  51.037
64399W        W56323  17.760  29.243  53.807
64400W        W56324  17.770  16.265  50.615
64401W        W56325  29.703  35.223  51.971
64402W        W56326  17.725   7.771  50.144
64403W        W56327  25.722  27.753  50.597
64404W        W56328   2.751  20.246  51.044
64405W        W56329   3.779  26.245  51.987
64406W        W56330  47.698  37.201  49.692
64407W        W56331  45.211  18.739  53.353
64408W        W56332   5.768  18.250  50.155
64409W        W56333  40.197  43.209  50.138
64410W        W56334  16.760  21.263  51.970
64411W        W56335  15.263   6.272  53.778
64412W        W56336   1.764  30.744  53.799
64413W        W56337  17.749  17.754  51.961
64414W        W56338  35.203  36.739  52.426
64415W        W56339  35.696   8.781  52.899
64416W        W56340  39.211  14.270  52.882
64417W        W56341  30.233  22.717  53.360
64418W        W56342  25.709  27.241  50.151
64419W        W56343   0.780   0.282  51.975
64420W        W56344  17.256   8.274  53.357
64421W        W56345  16.754  19.755  50.584
64422W        W56346  11.252  40.732  52.410
64423W        W56347  23.721  42.727  53.788
64424W        W56348   2.270  34.699  53.353
64425W        W56349  31.730  22.261  51.974
64426W        W56350  27.226  26.224  50.134
64427W        W56351  46.192  32.713  53.804
64428W        W56352  43.226  28.229  50.132
64429W        W56353   6.778  21.241  52.889
64430W        W56354  42.218  15.243  52.407
64431W        W56355  35.231  25.730  53.779
64432W        W56356  13.246  24.224  49.691
64433W        W56357  15.233  26.250  53.335
64434W        W56358  46.704  25.720  51.502
64435W        W56359  20.232  20.223  49.666
64436W        W56360  12.280  13.756  51.961
64437W        W56361  40.189  42.697  53.807
64438W        W56362  10.233  44.713  51.535
64439W        W56363  20.752   3.286  51.947
64440W        W56364  29.728   0.771  49.690
64441W        W56365  33.700  32.715  49.704
64442W        W56366  28.225  28.724  52.892
64443W        W56367  42.700  10.244  50.589
64444W        W56368   5.777  11.272  50.166
64445W        W56369  29.240  44.215  51.985
64446W        W56370  20.725  47.190  49.673
64447W        W56371  19.245  47.672  50.147
64448W        W56372  28.741  45.678  50.606
64449W        W56373   9.268  31.720  53.774
64450W        W56374   7.278  19.760  51.506
64451W        W56375  26.716  19.721  49.691
64452W        W56376  19.239  21.755  50.608
64453W        W56377  29.249   9.256  51.513
64454W        W56378  19.227  21.239  52.885
64455W        W56379  14.268  23.232  52.902
64456W        W56380  33.707  40.716  53.346
64457W        W56381   2.772  22.737  53.358
64458W        W56382  46.688  17.754  51.059
64459W        W56383  11.778  11.236  51.959
64460W        W56384   8.243  19.758  51.974
64461W        W56385   4.245  18.754  49.691
64462W        W56386  31.721  13.277  50.603
64463W        W56387  31.217  14.735  51.511
64464W        W56388  34.728  14.757  52.446
64465W        W56389   3.262   7.787  52.434
64466W        W56390   7.266  48.180  50.128
64467W        W56391   5.766  41.691  51.502
64468W        W56392   1.758  27.738  52.882
64469W        W56393  12.252   1.254  51.948
64470W        W56394  28.238   5.754  53.356
64471W        W56395  42.722  38.706  50.156
64472W        W56396  25.226   5.747  52.435
64473W        W56397  29.229  26.233  51.510
64474W        W56398  14.774  41.214  51.954
64475W        W56399  22.245  11.270  50.605
64476W        W56400  31.244  39.722  51.516
64477W        W56401  13.242  26.242  53.813
64478W        W56402   0.254  27.225  52.859
64479W        W56403  42.220  42.210  49.686
64480W        W56404  11.743  25.212  53.338
64481W        W56405  30.714  41.687  52.876
64482W        W56406  33.237  24.724  53.796
64483W        W56407   8.775  12.247  50.160
64484W        W56408  17.762  29.219  51.044
64485W        W56409   5.758   3.273  52.427
64486W        W56410  14.758  45.682  51.059
64487W        W56411   0.771  26.746  53.329
64488W        W56412  17.734  37.733  51.514
64489W        W56413  18.745  10.261  50.162
64490W        W56414   9.750  48.210  52.862
64491W        W56415  44.194  43.182  50.584
64492W        W56416  26.208  33.743  51.043
64493W        W56417  45.214  13.278  51.963
64494W        W56418  14.232  36.216  51.069
64495W        W56419  46.175  45.209  53.351
64496W        W56420  44.684  12.278  53.804
64497W        W56421  48.189  18.242  51.989
64498W        W56422  47.710  43.184  49.676
64499W        W56423  25.720  42.727  52.863
64500W        W56424  35.202  11.743  51.064
64501W        W56425  36.199  23.753  50.604
64502W        W56426  43.199  34.705  52.410
64503W        W56427   8.743  27.724  49.702
64504W        W56428  39.702  25.247  52.900
64505W        W56429   2.246  20.730  53.354
64506W        W56430   1.260  17.249  50.595
64507W        W56431  34.237  18.229  49.692
64508W        W56432  25.214  12.247  51.530
64509W        W56433  28.745  17.248  50.604
64510W        W56434  18.749   4.280  51.967
64511W        W56435  31.236   2.749  52.877
64512W        W56436  19.248  27.206  52.885
64513W        W56437  33.237   4.778  53.805
64514W        W56438  48.207  43.207  52.901
64515W        W56439   1.778  38.700  49.687
64516W        W56440  24.242  22.241  50.132
64517W        W56441  41.695  14.254  53.329
64518W        W56442   8.239  45.214  50.599
64519W        W56443  44.681  34.700  53.322
64520W        W56444  31.241  32.722  53.776
64521W        W56445   2.258  17.760  53.794
64522W        W56446   0.765  38.211  52.901
64523W        W56447   4.757  13.735  49.708
64524W        W56448  35.708  41.213  52.409
64525W        W56449  33.207  14.249  50.122
64526W        W56450  33.710  40.687  49.672
64527W        W56451   6.777  16.735  51.960
64528W        W56452  40.222  29.732  53.812
64529W        W56453  39.223  37.725  51.037
64530W        W56454  26.226  43.193  53.793
64531W        W56455   6.740  17.768  53.356
64532W        W56456  23.248  20.753  53.320
64533W        W56457  19.749  11.762  49.692
64534W        W56458   5.267   9.738  51.512
64535W        W56459  42.720   0.785  51.958
64536W        W56460  33.209  19.724  53.338
64537W        W56461  42.692  27.239  52.868
64538W        W56462  22.239  22.720  51.518
64539W        W56463  23.225  19.746  50.157
64540W        W56464  11.765  47.176  53.341
64541W        W56465  27.205  24.260  50.123
64542W        W56466   1.278  38.230  51.055
64543W        W56467  38.713  40.697  52.421
64544W        W56468  37.237  17.253  52.876
64545W        W56469  35.716   3.245  49.670
64546W        W56470  22.758  15.744  51.525
64547W        W56471   0.760  47.705  52.868
64548W        W56472  33.215  43.223  53.807
64549W        W56473   7.753  32.724  51.497
64550W        W56474  20.718  22.232  52.434
64551W        W56475  29.240  27.709  51.950
64552W        W56476   8.774  35.237  50.136
64553W        W56477  23.224  48.204  53.333
64554W        W56478  17.757  38.724  52.412
64555W        W56479  27.227  11.251  50.164
64556W        W56480  41.221   4.291  50.161
64557W        W56481   6.773  14.246  51.530
64558W        W56482  14.732  36.231  50.594
64559W        W56483  42.190  26.249  53.811
64560W        W56484  25.753  22.721  50.157
64561W        W56485  17.229  29.230  49.682
64562W        W56486  40.218  25.744  52.893
64563W        W56487  27.740  24.246  53.811
64564W        W56488  14.774  43.190  50.581
64565W        W56489   1.276   5.784  51.964
64566W        W56490  32.727  31.706  51.037
64567W        W56491  33.201  26.720  53.789
64568W        W56492  21.744  18.222  50.603
64569W        W56493   3.767  15.271  52.443
64570W        W56494   1.282  38.694  53.812
64571W        W56495  39.706   4.766  51.513
64572W        W56496  22.757  11.234  51.058
64573W        W56497   7.278  39.223  51.494
64574W        W56498   0.749  37.221  52.407
64575W        W56499   0.277  47.189  52.438
64576W        W56500  17.762   4.780  51.955
64577W        W56501  39.213  31.719  52.901
64578W        W56502  20.762  23.754  49.683
64579W        W56503  27.711   1.755  51.514
64580W        W56504  33.205  28.741  50.164
64581W        W56505  24.218   4.767  51.953
64582W        W56506  47.218  27.223  50.598
64583W        W56507   6.762  10.745  51.071
64584W        W56508  26.708  21.247  50.614
64585W        W56509  45.724   5.778  53.792
64586W        W56510  37.200  21.755  51.968
64587W        W56511  40.220  41.716  53.353
64588W        W56512  15.747   7.745  49.694
64589W        W56513   2.275  34.204  52.901
64590W        W56514  14.770  44.196  53.326
64591W        W56515  38.226   0.785  53.793
64592W        W56516   2.293  35.731  50.585
64593W        W56517  21.250  31.199  52.874
64594W        W56518  42.181   7.272  51.506
64595W        W56519  28.211   7.256  50.133
64596W        W56520  38.222  13.768  53.779
64597W        W56521   7.749  46.681  52.901
64598W        W56522  44.178  25.254  51.047
64599W        W56523  40.693  22.213  50.158
64600W        W56524  16.767  39.232  49.706
64601W        W56525  19.243  31.747  49.706
64602W        W56526   7.274  40.185  50.591
64603W        W56527  15.236   1.750  51.525
64604W        W56528  41.220  18.246  53.344
64605W        W56529  18.233  31.732  49.701
64606W        W56530  41.199  34.216  51.501
64607W        W56531  33.237  21.246  52.892
64608W        W56532  26.734  47.712  53.339
64609W        W56533   8.258  39.728  52.443
64610W        W56534  40.715  22.236  51.986
64611W        W56535  36.224   8.746  53.772
64612W        W56536   4.751   6.246  50.139
64613W        W56537  46.176  47.217  49.680
64614W        W56538  32.721  45.193  52.865
64615W        W56539  46.679  40.699  53.777
64616W        W56540  12.775  18.761  49.698
64617W        W56541   0.269   0.284  50.580
64618W        W56542  22.751  39.709  51.492
64619W        W56543  37.214  16.744  52.894
64620W        W56544  20.753   5.783  52.419
64621W        W56545  46.688  41.229  51.516
64622W        W56546   5.264   5.745  53.322
64623W        W56547  12.273  17.769  50.587
64624W        W56548  13.768   9.241  51.952
64625W        W56549  12.748   3.748  51.957
64626W        W56550   7.754   5.271  52.899
64627W        W56551  16.769  13.749  51.515
64628W        W56552  48.209   0.768  50.588
64629W        W56553  11.268  31.730  51.073
64630W        W56554  27.713  21.715  53.337
64631W        W56555   4.769  39.212  51.049
64632W        W56556  15.255  13.774  53.348
64633W        W56557   3.256  38.720  51.955
64634W        W56558  23.236   0.261  51.049
64635W        W56559  19.225  36.738  51.512
64636W        W56560  31.231  37.190  50.136
64637W        W56561  10.243  38.734  51.965
64638W        W56562  29.747  34.224  50.129
64639W        W56563  25.755   2.260  52.897
64640W        W56564  39.210  31.700  52.430
64641W        W56565  35.205  28.214  52.879
64642W        W56566   9.736  13.244  50.609
64643W        W56567  44.212  39.201  49.673
64644W        W56568   0.795  12.756  53.797
64645W        W56569  20.724  44.700  53.354
64646W        W56570  41.730   8.739  50.593
64647W        W56571  46.184  20.241  52.415
64648W        W56572   7.274  30.242  51.957
64649W        W56573   4.765   4.250  50.121
64650W        W56574  44.726  22.713  53.796
64651W        W56575  40.222  27.208  50.130
64652W        W56576  45.189  13.734  51.058
64653W        W56577   0.274  23.737  50.146
64654W        W56578  27.220   9.772  50.600
64655W        W56579  21.715  38.232  53.329
64656W        W56580  13.768  33.243  52.405
64657W        W56581  28.226  10.266  50.592
64658W        W56582  48.188  24.724  53.806
64659W        W56583  46.211  45.687  50.608
64660W        W56584  14.761  14.250  50.616
64661W        W56585  31.202   9.784  53.358
64662W        W56586   9.737  26.240  52.882
64663W        W56587  32.229  33.226  51.525
64664W        W56588  13.249  42.689  51.963
64665W        W56589  43.214  11.752  50.136
64666W        W56590  22.762   4.790  53.808
64667W        W56591  38.723   7.763  52.433
64668W        W56592   7.756  13.261  50.159
64669W        W56593  39.194  41.717  49.672
64670W        W56594  35.731  13.764  52.861
64671W        W56595  48.198  31.739  52.421
64672W        W56596  39.702  13.733  51.072
64673W        W56597   2.247  14.229  52.439
64674W        W56598  33.729  31.202  53.321
64675W        W56599  11.259  38.236  51.526
64676W        W56600  43.717  33.222  52.873
64677W        W56601  45.182  12.746  51.494
64678W        W56602   8.284  16.741  51.061
64679W        W56603  11.778   7.239  51.054
64680W        W56604   4.781  11.271  50.142
64681W        W56605  45.197  37.696  53.337
64682W        W56606  30.716  25.711  49.710
64683W        W56607  48.208  34.740  50.597
64684W        W56608  40.214  23.250  50.614
64685W        W56609  15.244  11.759  52.447
64686W        W56610  41.211   2.763  50.610
64687W        W56611  41.186  12.739  52.430
64688W        W56612  38.694  44.219  51.069
64689W        W56613  14.733  45.702  51.509
64690W        W56614   9.752  23.716  51.495
64691W        W56615   7.764   1.249  53.340
64692W        W56616  33.734  17.268  49.689
64693W        W56617  43.702  15.234  49.681
64694W        W56618  16.740  36.703  50.157
64695W        W56619  13.254  30.736  50.601
64696W        W56620  42.709  21.729  50.133
64697W        W56621  29.709  44.723  52.886
64698W        W56622  41.705  10.241  52.405
64699W        W56623  17.768   5.266  53.333
64700W        W56624  38.196   2.291  53.787
64701W        W56625  11.771  17.252  51.077
64702W        W56626  10.779  35.241  53.333
64703W        W56627  35.228  14.766  49.668
64704W        W56628  38.235  12.760  51.075
64705W        W56629  18.239  43.201  52.423
64706W        W56630  10.768  41.210  51.072
64707W        W56631  36.201  11.731  51.491
64708W        W56632  45.220   6.245  51.983
64709W        W56633  25.239  31.719  51.960
64710W        W56634   4.756  31.719  51.051
64711W        W56635  29.204   9.241  50.166
64712W        W56636   6.270  24.237  50.149
64713W        W56637  15.272  30.222  52.896
64714W        W56638  13.729  16.725  53.319
64715W        W56639  10.259  29.727  50.586
64716W        W56640  28.727  23.248  51.956
64717W        W56641  38.226  46.715  53.799
64718W        W56642  32.217   2.748  51.068
64719W        W56643  32.198  32.700  49.665
64720W        W56644  28.739   6.288  52.441
64721W        W56645  24.230   6.288  53.333
64722W        W56646  12.237  43.718  51.535
64723W        W56647  35.208  32.726  53.328
64724W        W56648   7.758   7.269  53.337
64725W        W56649  48.203   6.247  53.774
64726W        W56650   3.761  23.222  52.878
64727W        W56651  39.705   7.781  50.151
64728W        W56652  42.687  46.716  52.410
64729W        W56653   5.257  35.727  51.503
64730W        W56654  38.227  36.715  53.342
64731W        W56655  35.198  26.741  53.332
64732W        W56656  11.740  22.220  52.433
64733W        W56657  43.716  48.196  50.601
64734W        W56658  36.730  23.735  49.687
64735W        W56659  16.237   9.774  50.134
64736W        W56660   4.783  40.186  49.706
64737W        W56661  32.706  17.751  52.872
64738W        W56662  14.733  35.709  52.892
64739W        W56663   7.763  46.709  52.445
64740W        W56664   0.259  47.205  53.317
64741W        W56665   3.750  47.193  51.531
64742W        W56666  41.185  44.207  51.501
64743W        W56667  42.719  32.706  50.130
64744W        W56668  16.759  30.224  50.133
64745W        W56669  46.186  46.202  52.425
64746W        W56670  41.209  14.258  51.948
64747W        W56671  25.746   4.263  53.360
64748W        W56672   9.243  31.204  51.491
64749W        W56673  19.236   8.748  52.881
64750W        W56674  26.209  39.211  53.813
64751W        W56675  27.754  40.696  52.414
64752W        W56676   0.273  27.210  51.048
64753W        W56677  23.749  30.220  51.497
64754W        W56678  11.268  34.709  49.695
64755W        W56679  36.225  11.775  49.666
64756W        W56680   0.298  35.729  51.963
64757W        W56681  20.254  36.233  53.334
64758W        W56682   3.294  38.689  51.075
64759W        W56683  46.204  44.201  51.070
64760W        W56684   1.749  24.221  52.874
64761W        W56685   6.255  37.215  51.976
64762W        W56686  32.714  34.732  49.680
64763W        W56687  42.225  19.246  51.036
64764W        W56688  10.765  42.690  53.799
64765W        W56689  35.240  23.218  50.588
64766W        W56690   0.266  30.713  52.407
64767W        W56691  15.762  46.190  50.134
64768W        W56692  22.260  17.264  51.535
64769W        W56693  30.739   9.753  52.889
64770W        W56694   8.272  29.729  49.686
64771W        W56695  38.193  16.248  50.611
64772W        W56696   3.280  40.718  49.685
64773W        W56697   8.263  11.731  50.614
64774W        W56698  22.223   0.254  53.781
64775W        W56699  47.679   9.742  52.874
64776W        W56700  35.196  15.762  50.580
64777W        W56701  20.259  25.223  52.436
64778W        W56702  25.244  43.713  51.061
64779W        W56703  16.260  45.223  51.989
64780W        W56704   9.782  45.196  53.356
64781W        W56705  29.744   0.772  50.144
64782W        W56706  22.234  19.737  52.417
64783W        W56707   2.292  22.757  52.889
64784W        W56708   0.784  18.732  51.044
64785W        W56709  43.704  38.708  53.352
64786W        W56710  21.740  48.181  50.156
64787W        W56711  10.769  37.190  52.441
64788W        W56712  24.258   6.751  53.813
64789W        W56713   7.276  39.190  49.676
64790W        W56714  29.207  31.709  50.154
64791W        W56715  25.747   4.761  49.678
64792W        W56716   3.260  17.743  51.953
64793W        W56717  20.754  30.735  51.493
64794W        W56718  19.762  31.716  51.074
64795W        W56719   9.247  15.732  51.055
64796W        W56720  31.703  13.776  50.155
64797W        W56721  46.222  23.716  53.342
64798W        W56722  22.755  12.231  50.135
64799W        W56723  16.727  26.735  53.330
64800W        W56724  38.227  44.707  51.956
64801W        W56725   9.765  11.256  52.408
64802W        W56726   6.744  13.259  50.605
64803W        W56727   6.263  13.265  51.956
64804W        W56728   4.768  43.688  51.505
64805W        W56729  38.717   0.771  51.495
64806W        W56730  45.216  18.254  53.782
64807W        W56731   4.265  20.237  51.060
64808W        W56732  10.753  24.742  50.597
64809W        W56733  12.260   4.289  51.501
64810W        W56734  25.756  48.193  51.495
64811W        W56735  12.751  24.232  50.597
64812W        W56736   6.758  40.704  52.890
64813W        W56737  17.240   8.756  51.532
64814W        W56738  38.229  48.178  53.786
64815W        W56739   4.292  19.241  53.804
64816W        W56740  31.226  47.206  52.888
64817W        W56741  40.191  40.726  51.975
64818W        W56742  42.220   6.277  51.529
64819W        W56743  33.738  21.716  52.887
64820W        W56744  13.246  41.197  53.778
64821W        W56745  42.682  41.191  53.801
64822W        W56746  40.220  10.240  50.615
64823W        W56747  20.223  30.206  50.153
64824W        W56748  30.728  28.728  51.522
64825W        W56749  11.249   6.260  49.697
64826W        W56750  43.712  34.697  53.795
64827W        W56751   5.283  46.183  51.495
64828W        W56752   2.789   8.270  51.039
64829W        W56753  40.212  31.733  53.787
64830W        W56754  21.261  24.222  50.619
64831W        W56755  22.741  45.681  53.813
64832W        W56756  32.212  37.217  50.598
64833W        W56757  11.257  25.732  50.132
64834W        W56758  31.222  20.729  49.693
64835W        W56759  13.243   3.776  52.879
64836W        W56760  42.691  32.239  52.876
64837W        W56761   1.792  38.733  51.989
64838W        W56762   5.748  14.758  51.509
64839W        W56763   6.248  23.223  53.798
64840W        W56764   3.781  47.213  51.049
64841W        W56765   6.244  22.731  52.873
64842W        W56766  19.761  27.239  52.876
64843W        W56767   5.773  34.199  53.328
64844W        W56768  38.732  16.260  51.048
64845W        W56769   1.763  19.721  50.137
64846W        W56770  34.215  19.244  50.609
64847W        W56771  39.699  31.229  53.815
64848W        W56772  42.693  22.217  52.418
64849W        W56773  27.209  34.221  53.777
64850W        W56774  26.228  26.225  51.492
64851W        W56775  43.193  47.219  50.607
64852W        W56776  45.177  10.255  53.336
64853W        W56777  31.724   2.784  52.433
64854W        W56778  45.691  29.731  49.664
64855W        W56779  27.223  29.743  53.817
64856W        W56780  45.178  11.258  53.361
64857W        W56781  14.742   3.285  49.673
64858W        W56782   7.767   3.757  51.954
64859W        W56783  20.258  16.744  50.599
64860W        W56784  12.268  21.730  49.671
64861W        W56785  19.730   8.269  50.154
64862W        W56786  43.701   1.254  53.316
64863W        W56787  32.707   1.288  49.693
64864W        W56788   0.751  42.183  52.424
64865W        W56789  47.213  43.685  50.622
64866W        W56790  35.717   1.759  52.877
64867W        W56791  38.234  30.744  51.038
64868W        W56792   4.756   5.774  50.606
64869W        W56793  24.713  28.231  50.143
64870W        W56794  48.173  17.722  51.065
64871W        W56795  43.700  28.747  51.960
64872W        W56796  36.219  10.767  50.155
64873W        W56797  40.701  32.230  50.129
64874W        W56798  13.260  23.753  51.981
64875W        W56799  32.210  31.220  52.904
64876W        W56800  33.233  10.270  51.058
64877W        W56801  37.723  14.228  53.787
64878W        W56802  32.230  22.222  52.870
64879W        W56803  16.760  41.703  51.076
64880W        W56804  41.718  38.196  52.417
64881W        W56805  45.213  27.232  53.792
64882W        W56806  18.724  44.678  53.801
64883W        W56807  27.227   8.282  53.361
64884W        W56808  38.697   1.748  50.125
64885W        W56809  26.245   6.289  50.131
64886W        W56810  46.185  38.733  50.604
64887W        W56811   9.272   2.255  49.701
64888W        W56812  40.226  42.683  49.670
64889W        W56813  41.188  14.241  53.358
64890W        W56814  25.222  26.749  50.580
64891W        W56815  33.738  12.231  53.786
64892W        W56816  15.255  11.752  53.811
64893W        W56817  31.712  18.248  50.608
64894W        W56818  39.202  12.231  50.596
64895W        W56819  19.750  13.277  53.795
64896W        W56820  18.233  23.248  52.425
64897W        W56821  25.221  20.232  52.885
64898W        W56822  32.205  33.742  53.357
64899W        W56823  42.724  11.775  53.802
64900W        W56824  42.224   2.754  50.589
64901W        W56825  13.754  42.724  49.695
64902W        W56826  45.687  16.248  49.700
64903W        W56827  21.752  45.192  53.777
64904W        W56828   1.786  37.699  51.494
64905W        W56829  13.277  31.214  53.816
64906W        W56830  36.715  32.703  49.689
64907W        W56831  29.236  16.251  50.155
64908W        W56832  37.725   0.277  50.587
64909W        W56833  34.234  11.778  52.423
64910W        W56834  41.183  42.682  50.579
64911W        W56835  10.780   0.260  49.697
64912W        W56836  44.204  48.190  52.872
64913W        W56837   5.260  13.765  51.961
64914W        W56838  21.225   3.791  51.490
64915W        W56839   7.239  45.719  51.511
64916W        W56840  43.214  13.232  51.060
64917W        W56841   9.253  13.769  51.522
64918W        W56842  24.215  47.713  52.419
64919W        W56843  46.211   9.761  49.686
64920W        W56844  40.715  26.224  51.982
64921W        W56845  46.175  37.216  51.492
64922W        W56846  24.717  23.724  51.527
64923W        W56847  22.747  46.700  49.688
64924W        W56848  11.766  35.720  50.140
64925W        W56849  24.218  13.273  49.668
64926W        W56850   9.283  33.720  51.956
64927W        W56851  29.746  34.721  49.673
64928W        W56852  23.742  21.746  50.591
64929W        W56853   4.780   7.240  52.882
64930W        W56854  46.703  32.701  51.043
64931W        W56855  18.739  34.717  51.947
64932W        W56856   2.256  25.748  53.352
64933W        W56857  18.757  31.724  50.617
64934W        W56858  27.205   9.783  53.338
64935W        W56859   5.770  36.691  51.980
64936W        W56860  30.245   4.754  51.506
64937W        W56861   8.747  47.672  49.709
64938W        W56862   6.782  23.244  52.442
64939W        W56863  28.217  45.718  52.446
64940W        W56864  12.266  36.690  53.791
64941W        W56865  29.251  46.683  53.807
64942W        W56866  15.252  17.254  51.523
64943W        W56867  36.738  12.245  52.411
64944W        W56868  29.251  15.239  52.885
64945W        W56869  29.733   0.784  53.802
64946W        W56870  19.723  22.252  52.435
64947W        W56871  47.707   0.790  51.968
64948W        W56872  20.742  27.713  53.334
64949W        W56873  42.714  12.242  50.608
64950W        W56874  25.231  42.721  52.900
64951W        W56875  45.192  18.719  53.798
64952W        W56876  15.744  47.186  51.982
64953W        W56877   1.261  16.760  50.135
64954W        W56878  47.673  20.721  52.873
64955W        W56879  17.725   5.291  50.611
64956W        W56880   7.762   1.796  51.532
64957W        W56881  11.740  16.225  53.325
64958W        W56882  41.691  41.729  49.693
64959W        W56883  10.775   3.272  52.898
64960W        W56884  48.207   7.245  50.130
64961W        W56885  24.732  21.762  52.445
64962W        W56886  17.768  43.207  50.129
64963W        W56887   4.259  46.183  51.045
64964W        W56888  27.749  12.252  51.074
64965W        W56889   9.263  16.728  50.593
64966W        W56890  30.220  21.236  50.583
64967W        W56891  47.674  18.743  50.123
64968W        W56892  46.716  34.212  51.983
64969W        W56893  14.748  44.223  51.956
64970W        W56894  13.734   9.753  50.152
64971W        W56895  29.243   3.250  52.447
64972W        W56896  37.200  24.743  52.447
64973W        W56897  41.221   2.761  49.692
64974W        W56898   3.274   0.773  50.143
64975W        W56899  29.734   7.769  51.530
64976W        W56900  15.263  35.228  51.515
64977W        W56901  36.732  29.704  53.330
64978W        W56902  47.719  44.196  52.415
64979W        W56903  35.726  12.764  51.510
64980W        W56904  38.709  41.212  53.348
64981W        W56905  15.741  17.754  52.435
64982W        W56906  47.706  29.214  53.348
64983W        W56907  11.250  14.767  51.505
64984W        W56908  34.199  18.766  49.675
64985W        W56909  19.230  22.245  53.359
64986W        W56910  33.709  42.216  52.875
64987W        W56911  29.227  22.222  51.062
64988W        W56912   9.781  35.204  51.518
64989W        W56913   3.272  24.224  53.780
64990W        W56914   9.270  28.219  52.885
64991W        W56915  33.197  15.245  51.985
64992W        W56916  19.737   9.775  53.324
64993W        W56917  18.744  45.201  50.135
64994W        W56918  18.751  14.755  51.054
64995W        W56919  12.269  37.228  52.883
64996W        W56920   0.285  21.734  52.414
64997W        W56921   1.764  43.707  49.665
64998W        W56922   9.766  15.257  49.667
64999W        W56923   6.785  30.219  52.421
65000W        W56924  44.183   4.244  49.672
65001W        W56925  24.758   1.251  51.053
65002W        W56926  31.223  36.716  51.521
65003W        W56927  38.717  13.765  49.699
65004W        W56928  37.716  22.713  52.440
65005W        W56929   6.254  31.211  51.066
65006W        W56930  37.199  15.270  53.810
65007W        W56931  29.211  44.698  51.077
65008W        W56932   6.778   7.754  51.070
65009W        W56933  24.719  16.733  51.064
65010W        W56934  19.237  32.697  53.346
65011W        W56935   4.257  15.247  51.991
65012W        W56936  17.753  27.244  51.073
65013W        W56937   2.763  35.693  50.131
65014W        W56938  16.224  21.258  50.604
65015W        W56939  35.709  44.683  53.341
65016W        W56940  16.269  10.780  51.036
65017W        W56941  36.217  42.201  51.069
65018W        W56942  45.197  13.249  53.787
65019W        W56943  42.201  46.679  51.499
65020W        W56944  21.755  47.695  49.674
65021W        W56945  30.703  10.763  53.325
65022W        W56946  22.254  29.713  50.620
65023W        W56947  41.189  15.755  50.602
65024W        W56948  15.262  41.717  51.506
65025W        W56949  27.724  46.209  52.420
65026W        W56950  34.732  33.200  52.431
65027W        W56951  14.735   6.282  49.674
65028W        W56952   4.751   7.738  51.514
65029W        W56953   3.745  45.224  51.988
65030W        W56954  12.749  28.224  51.963
65031W        W56955   3.247   0.778  50.596
65032W        W56956   6.782  14.230  52.418
65033W        W56957   3.777  15.728  51.073
65034W        W56958  33.708  30.203  52.415
65035W        W56959  13.251  13.748  53.773
65036W        W56960  39.196  48.183  51.072
65037W        W56961   9.768  32.705  53.808
65038W        W56962  30.221  20.246  50.121
65039W        W56963   1.297  41.214  53.357
65040W        W56964   4.278  39.726  52.902
65041W        W56965  20.235  10.774  50.598
65042W        W56966  46.684   0.766  51.967
65043W        W56967  10.758  24.226  52.895
65044W        W56968  34.717  23.234  50.128
65045W        W56969   6.244  40.204  52.874
65046W        W56970  20.218   2.296  52.876
65047W        W56971  33.223  15.752  51.076
65048W        W56972  24.723  40.686  51.497
65049W        W56973  17.236   0.775  52.903
65050W        W56974  39.232  39.732  53.773
65051W        W56975  44.713  36.695  52.446
65052W        W56976  33.732   4.749  52.903
65053W        W56977  26.236  33.202  51.068
65054W        W56978   3.293   6.270  53.811
65055W        W56979  28.213   7.772  51.059
65056W        W56980  43.198   4.743  51.535
65057W        W56981  45.714  40.222  50.597
65058W        W56982  18.221  18.222  52.873
65059W        W56983  45.200  17.732  51.970
65060W        W56984  39.729  24.726  50.588
65061W        W56985  39.685  22.714  52.881
65062W        W56986  38.214  40.222  52.426
65063W        W56987  44.224  40.208  52.411
65064W        W56988   2.767   5.747  50.582
65065W        W56989  12.743  39.706  52.440
65066W        W56990  44.185  11.235  53.775
65067W        W56991  23.248  45.213  53.358
65068W        W56992  15.242   2.252  50.618
65069W        W56993  46.716  32.697  53.359
65070W        W56994   3.767  29.237  49.706
65071W        W56995  22.726  11.745  51.058
65072W        W56996  38.727  40.200  50.584
65073W        W56997   6.279  18.767  51.500
65074W        W56998  30.214  11.746  51.062
65075W        W56999  26.751  25.732  51.067
65076W        W57000  40.730  36.194  53.325
65077W        W57001   2.292   0.781  51.498
65078W        W57002  31.740  43.194  50.582
65079W        W57003   3.766  37.213  49.677
65080W        W57004  43.718  28.214  51.070
65081W        W57005  34.724  28.743  51.516
65082W        W57006  39.687   0.782  50.129
65083W        W57007  26.737  46.191  51.072
65084W        W57008  11.742   9.238  51.048
65085W        W57009  38.723  34.693  51.970
65086W        W57010  40.712   2.273  50.126
65087W        W57011  41.196   0.251  49.666
65088W        W57012  36.231  38.706  51.955
65089W        W57013  10.759  28.729  53.807
65090W        W57014  33.729   5.285  51.062
65091W        W57015   6.788  21.264  50.156
65092W        W57016  25.713  39.727  53.359
65093W        W57017   6.252  23.713  51.056
65094W        W57018  25.252  17.734  53.355
65095W        W57019  11.749  20.238  53.776
65096W        W57020  33.724  22.718  53.793
65097W        W57021  10.773  21.237  52.890
65098W        W57022  13.243   6.249  51.974
65099W        W57023  45.214  35.202  49.705
65100W        W57024  43.203  37.234  52.441
65101W        W57025  45.675  35.238  53.801
65102W        W57026  41.718  39.725  50.165
65103W        W57027   0.274  25.229  51.066
65104W        W57028  26.712  30.243  49.701
65105W        W57029   9.276   4.279  49.665
65106W        W57030  40.720  30.734  49.696
65107W        W57031  15.229  31.230  49.702
65108W        W57032  34.240  40.195  52.429
65109W        W57033  18.233  36.696  53.817
65110W        W57034  34.694  37.231  53.780
65111W        W57035  15.772   1.263  50.585
65112W        W57036  24.737  26.754  51.499
65113W        W57037  31.714  38.689  52.873
65114W        W57038   6.242  27.253  52.424
65115W        W57039  33.216   9.752  49.690
65116W        W57040  34.723  46.211  50.606
65117W        W57041  37.235  31.244  52.879
65118W        W57042  41.686  39.689  49.693
65119W        W57043  44.683  13.252  53.778
65120W        W57044  25.750  29.731  49.702
65121W        W57045  44.678  21.240  52.891
65122W        W57046   3.788  14.733  52.411
65123W        W57047  10.772  40.703  51.980
65124W        W57048   5.772  13.273  52.428
65125W        W57049   8.782  35.705  50.621
65126W        W57050  22.759  32.724  50.579
65127W        W57051  20.263  25.741  52.435
65128W        W57052  32.240  44.718  51.955
65129W        W57053  36.736  18.266  53.777
65130W        W57054   4.270  15.234  53.332
65131W        W57055  36.225  23.241  53.781
65132W        W57056  35.740  39.697  53.317
65133W        W57057  32.723  11.275  49.704
65134W        W57058  42.202  40.217  52.902
65135W        W57059  46.705  14.774  51.056
65136W        W57060  13.275  23.246  52.882
65137W        W57061  40.212  42.683  51.968
65138W        W57062   6.755  39.702  51.986
65139W        W57063   9.266   3.248  52.903
65140W        W57064  44.691  28.214  53.804
65141W        W57065  36.207   7.770  53.346
65142W        W57066  20.719  16.732  53.772
65143W        W57067   6.284  29.721  50.154
65144W        W57068  41.712   8.257  53.344
65145W        W57069  38.229  21.230  49.702
65146W        W57070  20.765  16.231  52.441
65147W        W57071   4.278  44.193  52.890
65148W        W57072   8.770  19.742  50.150
65149W        W57073  29.239  12.740  51.954
65150W        W57074  31.740  47.696  50.165
65151W        W57075  14.737   5.273  52.879
65152W        W57076  14.756   4.281  52.901
65153W        W57077   9.273  43.698  51.040
65154W        W57078   7.752   6.263  49.704
65155W        W57079  23.259  47.212  53.798
65156W        W57080   6.751  43.213  50.141
65157W        W57081  34.195  20.731  52.447
65158W        W57082  23.233  44.203  51.064
65159W        W57083  35.230   3.249  51.516
65160W        W57084  38.223  22.726  50.123
65161W        W57085  28.734  40.233  52.445
65162W        W57086  22.736  19.741  51.966
65163W        W57087  18.236  34.218  50.138
65164W        W57088  23.247   9.784  51.051
65165W        W57089  26.738  42.698  51.050
65166W        W57090  29.712   7.764  51.972
65167W        W57091  35.729  12.270  52.419
65168W        W57092  17.244  31.726  52.435
65169W        W57093  30.237  16.751  49.702
65170W        W57094  22.227  35.707  50.606
65171W        W57095   8.259   2.260  50.621
65172W        W57096  28.747  35.704  50.580
65173W        W57097  17.735  26.751  51.075
65174W        W57098  42.201  32.221  53.783
65175W        W57099  36.704   3.283  51.516
65176W        W57100  17.263  32.216  53.326
65177W        W57101  34.727  40.190  51.533
65178W        W57102   3.764  32.708  49.678
65179W        W57103  36.232  22.724  53.785
65180W        W57104   3.757  35.708  51.505
65181W        W57105  26.710   8.756  49.681
65182W        W57106  43.692  12.266  52.886
65183W        W57107   9.736   0.757  53.348
65184W        W57108  22.223   1.760  50.124
65185W        W57109  17.758  13.754  50.583
65186W        W57110   1.776  29.705  51.957
65187W        W57111   0.766  39.199  52.886
65188W        W57112  46.220  25.213  52.898
65189W        W57113  43.200  16.227  53.351
65190W        W57114  47.686  46.176  50.609
65191W        W57115  18.731  47.677  52.864
65192W        W57116  14.737  10.775  49.667
65193W        W57117  23.249   7.245  51.947
65194W        W57118   2.766  34.224  51.952
65195W        W57119  18.229  46.201  52.423
65196W        W57120  39.724  27.748  49.667
65197W        W57121  27.711  20.725  50.593
65198W        W57122  23.754  46.721  51.531
65199W        W57123  48.197   2.752  50.590
65200W        W57124  19.227  23.748  53.799
65201W        W57125  48.195  20.250  51.512
65202W        W57126  39.691  47.191  51.974
65203W        W57127  15.763  46.693  52.868
65204W        W57128  15.271  39.719  50.135
65205W        W57129  23.750  22.227  51.509
65206W        W57130  43.728  42.210  53.797
65207W        W57131  17.735  31.709  52.880
65208W        W57132  36.195  16.242  50.617
65209W        W57133   4.284  35.693  52.405
65210W        W57134  41.718  27.714  50.141
65211W        W57135  38.698  27.248  50.613
65212W        W57136   6.742   3.787  53.784
65213W        W57137   8.784   8.774  49.675
65214W        W57138   5.776  14.764  51.070
65215W        W57139  30.231   4.268  50.123
65216W        W57140  25.237   4.263  49.692
65217W        W57141  41.683  39.203  51.984
65218W        W57142  11.240   8.285  49.703
65219W        W57143  45.189  37.729  51.067
65220W        W57144  31.711  47.700  51.959
65221W        W57145  40.707   4.773  49.701
65222W        W57146   6.287  40.723  51.040
65223W        W57147  38.204   7.286  52.417
65224W        W57148  12.243  39.690  50.139
65225W        W57149  32.698  32.729  50.128
65226W        W57150  23.715  20.223  52.437
65227W        W57151  20.739  41.694  49.680
65228W        W57152  32.228  29.730  50.141
65229W        W57153  42.198  34.239  50.162
65230W        W57154  37.217  28.725  53.360
65231W        W57155  20.252  15.750  52.889
65232W        W57156   2.258  42.701  49.686
65233W        W57157   0.794  43.202  53.330
65234W        W57158  10.779   9.782  49.676
65235W        W57159  16.236  40.716  49.685
65236W        W57160  32.224  11.281  52.412
65237W        W57161  36.233  43.187  53.799
65238W        W57162  26.233  12.237  49.694
65239W        W57163   1.791  24.748  49.666
65240W        W57164  44.225   0.781  50.607
65241W        W57165  43.723  26.210  49.685
65242W        W57166   5.251  17.227  51.948
65243W        W57167   8.776  36.729  49.704
65244W        W57168  27.746  41.191  51.971
65245W        W57169  33.209   0.268  50.619
65246W        W57170  23.759  48.175  52.876
65247W        W57171   3.788  29.748  49.671
65248W        W57172   2.264  46.218  52.448
65249W        W57173  31.206  25.252  52.891
65250W        W57174  39.203  39.688  52.894
65251W        W57175  14.236  24.725  51.071
65252W        W57176  22.757  42.703  52.443
65253W        W57177   2.761  16.756  52.444
65254W        W57178  20.739  35.728  52.420
65255W        W57179   6.277   5.276  52.883
65256W        W57180  36.202  24.727  49.691
65257W        W57181  37.235  38.219  50.148
65258W        W57182  47.697   4.777  52.407
65259W        W57183   7.251  15.259  52.895
65260W        W57184  13.248  11.273  51.970
65261W        W57185   9.280  10.257  51.951
65262W        W57186  25.749  24.714  51.523
65263W        W57187  29.711   7.777  51.055
65264W        W57188  13.770  14.739  50.143
65265W        W57189  20.244  41.204  53.791
65266W        W57190  10.270  46.700  52.881
65267W        W57191  47.689  34.207  52.862
65268W        W57192  14.739  46.196  50.586
65269W        W57193  26.753  21.242  50.141
65270W        W57194  10.242  29.202  51.073
65271W        W57195  20.765  34.224  51.533
65272W        W57196   3.775  37.232  50.580
65273W        W57197  30.241  30.719  51.054
65274W        W57198   0.261  28.726  51.037
65275W        W57199   0.291  26.724  53.803
65276W        W57200  20.753   6.777  51.524
65277W        W57201  42.708   4.752  53.816
65278W        W57202  31.234  18.223  49.703
65279W        W57203  21.255  27.721  50.581
65280W        W57204  24.217   0.273  51.520
65281W        W57205   1.272  21.219  51.959
65282W        W57206  30.234   5.774  51.991
65283W        W57207   7.759  12.279  50.619
65284W        W57208   7.288  13.755  53.353
65285W        W57209  34.210  14.747  53.802
65286W        W57210  47.217  10.282  51.954
65287W        W57211  29.736  35.701  52.418
65288W        W57212   5.248   8.742  51.949
65289W        W57213  35.233  14.730  52.441
65290W        W57214  18.247   5.774  52.420
65291W        W57215  42.703  11.281  53.351
65292W        W57216  27.245  24.220  52.412
65293W        W57217  13.275  47.194  49.678
65294W        W57218  45.223  45.682  49.695
65295W        W57219  22.750  24.241  52.408
65296W        W57220  24.756   4.754  51.958
65297W        W57221   0.285  16.252  52.406
65298W        W57222  20.219  41.700  51.951
65299W        W57223   7.783  42.724  50.602
65300W        W57224   9.284   3.246  50.139
65301W        W57225  12.234  41.202  53.803
65302W        W57226  13.730  38.210  52.899
65303W        W57227   8.274  29.218  52.434
65304W        W57228  10.283  25.721  50.594
65305W        W57229   1.256  43.706  52.448
65306W        W57230  42.194  11.277  53.795
65307W        W57231   3.247   1.766  50.132
65308W        W57232  11.237  27.245  53.325
65309W        W57233  42.695  11.254  51.525
65310W        W57234  48.189  26.237  52.867
65311W        W57235   7.746  39.186  51.986
65312W        W57236  32.722   5.757  51.500
65313W        W57237  46.199   5.264  52.444
65314W        W57238   0.251  20.258  53.773
65315W        W57239  17.245  31.718  53.788
65316W        W57240  48.191  46.707  51.989
65317W        W57241  25.726  31.201  50.611
65318W        W57242  18.755  16.262  49.702
65319W        W57243  46.710   1.770  53.340
65320W        W57244  23.728  18.767  51.490
65321W        W57245   1.757  25.223  50.587
65322W        W57246  13.760  12.732  49.692
65323W        W57247  34.201   8.751  50.133
65324W        W57248   9.243  36.193  52.880
65325W        W57249  33.225   8.255  53.801
65326W        W57250   4.785  38.198  49.668
65327W        W57251  43.222  12.275  49.696
65328W        W57252  36.716  28.712  52.404
65329W        W57253  31.700   8.263  50.594
65330W        W57254  46.185  37.698  49.674
65331W        W57255  41.723  21.224  53.788
65332W        W57256   4.790  39.731  51.042
65333W        W57257   8.771  39.193  49.708
65334W        W57258  17.271  11.244  53.321
65335W        W57259  31.206  17.269  49.691
65336W        W57260  39.219  13.251  50.140
65337W        W57261  24.223  43.693  51.505
65338W        W57262   0.295  11.253  53.328
65339W        W57263  46.707  42.713  51.972
65340W        W57264  43.726  24.247  51.040
65341W        W57265  19.250  16.745  52.904
65342W        W57266  27.723  10.769  49.671
65343W        W57267   4.292   0.752  52.897
65344W        W57268  45.208  28.220  49.683
65345W        W57269  13.272  12.236  53.813
65346W        W57270  24.723  33.222  52.898
65347W        W57271  44.697  26.719  53.801
65348W        W57272  46.183  44.718  51.531
65349W        W57273  26.209  15.255  52.899
65350W        W57274  21.736  25.225  52.438
65351W        W57275  27.244  10.242  53.319
65352W        W57276  16.740   8.744  50.603
65353W        W57277  12.755  34.213  53.324
65354W        W57278   3.759  46.175  52.441
65355W        W57279  32.701  47.687  53.329
65356W        W57280  16.250   5.782  51.053
65357W        W57281  30.734  14.735  52.893
65358W        W57282  44.693  42.187  53.806
65359W        W57283  33.210  16.725  49.685
65360W        W57284   0.255  20.257  49.698
65361W        W57285  44.194  25.231  51.491
65362W        W57286  36.694  45.722  50.593
65363W        W57287  42.207  38.236  51.528
65364W        W57288  20.766  19.241  51.977
65365W        W57289  44.717  40.217  53.775
65366W        W57290  47.196  12.242  50.604
65367W        W57291   3.287  41.218  50.598
65368W        W57292   6.245  34.702  50.599
65369W        W57293  44.709  27.708  52.893
65370W        W57294  24.254  27.750  53.333
65371W        W57295  34.218  44.182  51.038
65372W        W57296   6.754  19.759  52.422
65373W        W57297  45.179  10.243  53.794
65374W        W57298  45.210  42.206  51.532
65375W        W57299  47.677  31.723  52.904
65376W        W57300  10.269  15.265  51.071
65377W        W57301   2.778   2.290  52.862
65378W        W57302  42.202  44.714  53.346
65379W        W57303   7.770  19.258  51.963
65380W        W57304  34.714   3.770  53.800
65381W        W57305  23.238   9.749  49.695
65382W        W57306  22.248  33.236  52.860
65383W        W57307  45.706   7.249  51.071
65384W        W57308  22.720  31.217  51.055
65385W        W57309  41.690  38.220  51.513
65386W        W57310  16.237  42.216  53.350
65387W        W57311  27.720  45.699  53.816
65388W        W57312   1.278  40.205  51.041
65389W        W57313   4.264   5.255  50.152
65390W        W57314   5.744   4.749  50.130
65391W        W57315  30.740  13.769  50.579
65392W        W57316  20.222  29.729  52.881
65393W        W57317   7.775  10.238  51.978
65394W        W57318   2.271  45.721  52.428
65395W        W57319  21.746  32.239  51.975
65396W        W57320  26.255  30.205  53.326
65397W        W57321  41.229   5.775  52.425
65398W        W57322  17.265  35.219  52.904
65399W        W57323  13.759  17.245  50.593
65400W        W57324  30.739  31.229  52.417
65401W        W57325   0.298  42.205  51.520
65402W        W57326   3.251  42.189  52.417
65403W        W57327  13.259  10.253  52.432
65404W        W57328  39.189   1.784  53.358
65405W        W57329   1.296  37.231  51.053
65406W        W57330   8.780  41.216  52.860
65407W        W57331   8.238  45.181  52.871
65408W        W57332  15.239  24.224  52.430
65409W        W57333  17.730  11.263  53.787
65410W        W57334   2.252   9.752  52.442
65411W        W57335  10.268  45.189  52.423
65412W        W57336  32.238  32.241  51.078
65413W        W57337  21.236  24.214  52.435
65414W        W57338  11.756  15.264  52.869
65415W        W57339  41.191  42.184  50.620
65416W        W57340   1.259  42.702  52.422
65417W        W57341  46.187  30.715  51.071
65418W        W57342  17.747  40.713  49.697
65419W        W57343  11.259  39.719  53.794
65420W        W57344   4.792   3.270  50.605
65421W        W57345  47.672  32.712  51.957
65422W        W57346  18.749  40.209  50.147
65423W        W57347  21.245  33.223  52.433
65424W        W57348  13.737  35.733  53.811
65425W        W57349  32.212  10.260  51.529
65426W        W57350   1.263   1.776  52.873
65427W        W57351   6.288  34.735  53.799
65428W        W57352  31.734  18.232  52.904
65429W        W57353  11.756  41.723  51.988
65430W        W57354  23.752   1.277  51.067
65431W        W57355  46.712  16.767  51.077
65432W        W57356  24.709   0.250  53.360
65433W        W57357  10.760  14.761  52.883
65434W        W57358  44.216  20.753  49.695
65435W        W57359   8.275  10.740  53.787
65436W        W57360   1.792  26.233  51.507
65437W        W57361  15.226   1.768  51.973
65438W        W57362  14.269  33.721  50.595
65439W        W57363  33.724  30.250  50.611
65440W        W57364  37.735  45.685  52.866
65441W        W57365  11.768  32.703  52.897
65442W        W57366  13.240   1.257  49.678
65443W        W57367  33.704  47.199  53.779
65444W        W57368  34.210  39.225  51.510
65445W        W57369  30.228  32.220  51.982
65446W        W57370  10.252  32.230  50.134
65447W        W57371  46.681  20.735  52.442
65448W        W57372  35.703  12.774  51.044
65449W        W57373   5.752  19.254  49.674
65450W        W57374  14.732  30.224  52.426
65451W        W57375   2.770  10.281  51.960
65452W        W57376   1.757  25.752  50.141
65453W        W57377  23.716  38.211  51.495
65454W        W57378  44.708  21.758  53.330
65455W        W57379  16.723  18.766  53.797
65456W        W57380  29.210   8.761  51.038
65457W        W57381  12.745   9.253  50.614
65458W        W57382  24.238  19.227  50.582
65459W        W57383  29.244  33.221  52.870
65460W        W57384  36.702  18.766  51.493
65461W        W57385  19.728  34.721  53.330
65462W        W57386  28.716  25.236  53.789
65463W        W57387  19.251  45.203  53.777
65464W        W57388  11.733  11.744  49.681
65465W        W57389  27.229  16.250  51.980
65466W        W57390  10.240  23.745  52.445
65467W        W57391  17.752  48.171  49.678
65468W        W57392  11.261   8.270  52.417
65469W        W57393  33.210   6.751  52.407
65470W        W57394  40.219  30.249  53.774
65471W        W57395  27.249  45.685  52.441
65472W        W57396  29.729  10.256  51.077
65473W        W57397  35.222  12.770  51.492
65474W        W57398   7.252  40.694  51.495
65475W        W57399  46.190  34.706  53.359
65476W        W57400  36.733  45.215  50.136
65477W        W57401  44.204  20.252  51.062
65478W        W57402  48.194   8.774  51.535
65479W        W57403  46.708  13.235  50.622
65480W        W57404  32.198  22.248  51.077
65481W        W57405  19.249   1.754  49.702
65482W        W57406  37.233  16.260  53.347
65483W        W57407  15.772  14.229  53.791
65484W        W57408  13.252   3.761  50.590
65485W        W57409  27.228   3.280  52.432
65486W        W57410  46.207  29.232  50.607
65487W        W57411   0.276  39.723  53.330
65488W        W57412  10.756  38.712  51.989
65489W        W57413  21.226  10.745  51.974
65490W        W57414   8.785  30.731  51.500
65491W        W57415  48.182  14.750  51.521
65492W        W57416  32.723  26.755  53.348
65493W        W57417  43.685  35.205  53.333
65494W        W57418  25.210  34.209  49.688
65495W        W57419  33.709  33.236  53.798
65496W        W57420  17.224  29.202  53.786
65497W        W57421   3.275  36.236  50.136
65498W        W57422   8.255  17.754  52.895
65499W        W57423  35.198  36.709  53.325
65500W        W57424  36.697  21.754  52.876
65501W        W57425  21.757   8.246  51.068
65502W        W57426  16.257  36.203  53.357
65503W        W57427  25.219   1.779  53.803
65504W        W57428  46.675   7.282  51.500
65505W        W57429  22.738  16.257  50.612
65506W        W57430  19.235  22.744  53.361
65507W        W57431   4.758   1.755  50.139
65508W        W57432  13.251  46.711  51.512
65509W        W57433   4.279  10.266  50.136
65510W        W57434  35.215  23.249  52.444
65511W        W57435  20.235  23.261  53.324
65512W        W57436  13.777   3.265  51.503
65513W        W57437   3.266   3.263  53.328
65514W        W57438  17.728  15.258  51.982
65515W        W57439  39.219  30.710  51.071
65516W        W57440  45.183  44.694  49.694
65517W        W57441   4.290  28.244  49.701
65518W        W57442   0.761  15.264  50.144
65519W        W57443  35.714  30.235  51.980
65520W        W57444  14.249   3.273  53.817
65521W        W57445  15.235  20.239  51.988
65522W        W57446  46.704   7.774  53.803
65523W        W57447  44.209  13.774  51.040
65524W        W57448  41.683  37.699  49.683
65525W        W57449   3.248   2.778  51.498
65526W        W57450  40.694  12.736  51.045
65527W        W57451  32.715   7.270  53.773
65528W        W57452  39.729  36.700  53.808
65529W        W57453  17.250  46.683  51.499
65530W        W57454  20.264  40.727  53.791
65531W        W57455  46.722  17.235  52.881
65532W        W57456  25.255   3.291  50.136
65533W        W57457  39.734  37.696  51.503
65534W        W57458  42.719   0.788  50.580
65535W        W57459  42.207  13.272  53.775
65536W        W57460  37.719  16.764  51.036
65537W        W57461  24.236   2.276  52.415
65538W        W57462   6.289  43.720  52.442
65539W        W57463  22.735  14.773  51.978
65540W        W57464  43.692  10.240  50.140
65541W        W57465   7.779  10.264  49.704
65542W        W57466  27.240  18.222  52.446
65543W        W57467  24.249  36.209  51.971
65544W        W57468   8.238  34.720  52.882
65545W        W57469  21.220  30.240  49.684
65546W        W57470  17.753  40.729  53.326
65547W        W57471  25.243  24.217  51.499
65548W        W57472   8.245   8.266  49.707
65549W        W57473   0.773  30.720  51.078
65550W        W57474  46.203  36.217  51.034
65551W        W57475  13.238   7.749  51.060
65552W        W57476  20.720  44.192  52.900
65553W        W57477  25.255   9.267  50.580
65554W        W57478  27.727  47.692  52.885
65555W        W57479  30.230  27.732  49.703
65556W        W57480  26.749  21.261  51.531
65557W        W57481  11.769   3.753  51.968
65558W        W57482  22.740   7.269  49.702
65559W        W57483  12.241   7.281  50.159
65560W        W57484  47.174  13.271  52.412
65561W        W57485  14.268  16.765  53.359
65562W        W57486  26.209  36.226  51.508
65563W        W57487   8.273   6.269  50.155
65564W        W57488  35.207  25.730  51.962
65565W        W57489  39.716  25.243  52.435
65566W        W57490  15.766  42.206  50.591
65567W        W57491  35.716  23.231  51.045
65568W        W57492  22.246  31.721  52.412
65569W        W57493  25.208  21.241  51.072
65570W        W57494   3.259   5.770  52.409
65571W        W57495  21.745  22.221  50.590
65572W        W57496  35.193  15.744  51.525
65573W        W57497  39.705  41.696  53.795
65574W        W57498  45.223  38.210  52.420
65575W        W57499  37.731  35.711  50.590
65576W        W57500  19.261  37.201  51.066
65577W        W57501  15.227   1.750  53.340
65578W        W57502  48.173  39.708  51.064
65579W        W57503   6.780  15.237  53.789
65580W        W57504  34.220  36.737  51.961
65581W        W57505  35.694  41.185  53.323
65582W        W57506  47.693  32.711  53.333
65583W        W57507  33.237  33.742  50.143
65584W        W57508   1.778  16.769  49.669
65585W        W57509  42.697  11.738  52.438
65586W        W57510   5.244  12.732  50.140
65587W        W57511  44.205  19.224  51.069
65588W        W57512   6.746  30.744  53.805
65589W        W57513   0.754  47.186  52.430
65590W        W57514  43.689  21.753  50.164
65591W        W57515  13.752  46.680  53.773
65592W        W57516  37.728   8.758  51.969
65593W        W57517  45.202   7.747  50.604
65594W        W57518  40.190  33.720  51.521
65595W        W57519  37.714  14.239  50.598
65596W        W57520  25.221  40.214  51.509
65597W        W57521  40.700  25.753  52.860
65598W        W57522  27.720   2.782  51.529
65599W        W57523  42.205  28.727  53.350
65600W        W57524   7.242  45.712  49.690
65601W        W57525  16.724   0.270  52.421
65602W        W57526  36.234  43.705  52.439
65603W        W57527  46.687   3.763  53.776
65604W        W57528  31.729  17.749  53.361
65605W        W57529  12.765  24.715  51.948
65606W        W57530  21.264  42.686  49.684
65607W        W57531  37.211   6.786  53.326
65608W        W57532   0.787  22.240  53.320
65609W        W57533  16.750  35.237  51.975
65610W        W57534   7.777  22.750  52.872
65611W        W57535  30.246   9.284  50.602
65612W        W57536  17.247  40.697  51.986
65613W        W57537  29.726  30.224  51.048
65614W        W57538  41.695  26.708  50.595
65615W        W57539   2.258  31.239  53.359
65616W        W57540  40.698  18.737  52.406
65617W        W57541  25.753  10.279  49.681
65618W        W57542  32.199   4.786  50.619
65619W        W57543   2.772  42.692  51.517
65620W        W57544  44.687   3.775  51.522
65621W        W57545   2.749  44.198  52.898
65622W        W57546  32.736  36.201  51.531
65623W        W57547  24.746  21.229  51.974
65624W        W57548   2.269  10.276  50.138
65625W        W57549   1.281  21.739  51.069
65626W        W57550  26.226  18.735  53.786
65627W        W57551  15.765  39.716  52.439
65628W        W57552  44.194  17.736  53.339
65629W        W57553  27.752  32.236  53.344
65630W        W57554  13.267  31.235  51.527
65631W        W57555  40.689  45.721  51.077
65632W        W57556   4.252  22.224  50.157
65633W        W57557  32.228   2.285  51.961
65634W        W57558   9.739   9.759  51.948
65635W        W57559   7.244  10.750  52.433
65636W        W57560  31.222  39.710  50.129
65637W        W57561  15.728  22.723  52.863
65638W        W57562  38.229  22.725  53.329
65639W        W57563  16.236  37.706  51.041
65640W        W57564  21.755  20.747  52.879
65641W        W57565  30.700  14.733  49.691
65642W        W57566   0.283  22.249  51.076
65643W        W57567   8.246  42.194  53.336
65644W        W57568   5.272   5.754  52.863
65645W        W57569  47.692  24.714  50.157
65646W        W57570   2.257  22.240  53.358
65647W        W57571  12.251  43.711  52.863
65648W        W57572  28.223  42.696  49.670
65649W        W57573  42.192  30.741  50.594
65650W        W57574   0.767  18.253  53.356
65651W        W57575  34.229  20.759  51.989
65652W        W57576  48.211  17.250  53.351
65653W        W57577   5.249  42.718  52.425
65654W        W57578  21.249  41.715  52.877
65655W        W57579  31.731  42.219  53.780
65656W        W57580   3.257   3.277  49.677
65657W        W57581  12.731   0.786  51.494
65658W        W57582  24.743  33.713  51.976
65659W        W57583  22.239  26.756  53.787
65660W        W57584   2.778  47.214  50.580
65661W        W57585   3.761   1.285  53.815
65662W        W57586  13.265  26.226  50.604
65663W        W57587  34.726  44.689  51.502
65664W        W57588  33.733  26.232  52.422
65665W        W57589  29.726   2.764  49.665
65666W        W57590   9.778  26.240  49.688
65667W        W57591   5.768  36.697  51.510
65668W        W57592  37.693  42.184  51.977
65669W        W57593  31.723  24.210  49.671
65670W        W57594   3.755  30.707  52.886
65671W        W57595   4.769   5.743  53.354
65672W        W57596   7.750   0.796  51.954
65673W        W57597   5.263   8.748  51.047
65674W        W57598  38.212  45.699  53.781
65675W        W57599   2.756  21.757  53.803
65676W        W57600   4.276  38.689  51.502
65677W        W57601  19.753  20.256  51.968
65678W        W57602  45.203  17.757  53.778
65679W        W57603  26.731  37.217  52.448
65680W        W57604  37.726  30.203  53.325
65681W        W57605  14.276   6.248  50.142
65682W        W57606  18.240  10.240  49.693
65683W        W57607  35.208  28.719  51.505
65684W        W57608  43.707  44.192  51.949
65685W        W57609   1.768  16.256  53.325
65686W        W57610  27.707  20.742  51.491
65687W        W57611  29.227  43.711  52.888
65688W        W57612  34.704  46.193  52.440
65689W        W57613  22.219  21.715  52.414
65690W        W57614  16.240   3.292  51.070
65691W        W57615  30.230  42.722  51.035
65692W        W57616  31.739   0.268  52.418
65693W        W57617  36.718  24.731  50.131
65694W        W57618  31.732  41.217  53.348
65695W        W57619  47.214  31.741  50.164
65696W        W57620  26.745  29.221  50.592
65697W        W57621  39.700  17.736  51.964
65698W        W57622  46.211  12.230  51.967
65699W        W57623   2.790  29.232  52.446
65700W        W57624  24.243  20.265  51.067
65701W        W57625  26.728   3.753  51.958
65702W        W57626  26.731  36.709  51.498
65703W        W57627  29.719  37.238  52.895
65704W        W57628  43.690  28.227  53.804
65705W        W57629  39.228  44.702  51.078
65706W        W57630  23.226  23.746  53.787
65707W        W57631  11.780  35.708  52.448
65708W        W57632   2.271  27.210  53.791
65709W        W57633  33.695  42.192  51.982
65710W        W57634  25.240   3.249  52.446
65711W        W57635  17.756  44.680  50.145
65712W        W57636   2.253  16.247  49.706
65713W        W57637  34.721  19.221  53.798
65714W        W57638  26.208  12.268  51.520
65715W        W57639  10.247  10.253  52.902
65716W        W57640  25.747  27.249  49.672
65717W        W57641  41.692  10.238  50.125
65718W        W57642   3.770   1.250  52.859
65719W        W57643  22.755   2.786  51.530
65720W        W57644  38.188  10.776  51.069
65721W        W57645   4.250   2.250  53.339
65722W        W57646   7.252   0.778  50.162
65723W        W57647  37.219  33.206  51.043
65724W        W57648  32.707  22.757  50.583
65725W        W57649   9.749  12.277  50.156
65726W        W57650  42.715   8.780  50.153
65727W        W57651  41.187  39.205  49.680
65728W        W57652  46.710  27.712  52.416
65729W        W57653   9.772  35.701  51.034
65730W        W57654  31.719  31.746  53.799
65731W        W57655  25.751   0.281  52.898
65732W        W57656   9.752   1.291  51.064
65733W        W57657  18.269   2.778  51.074
65734W        W57658  18.234  18.747  50.144
65735W        W57659   3.249  12.778  50.612
65736W        W57660  23.246   7.252  50.616
65737W        W57661  45.719  18.224  49.684
65738W        W57662  14.229  13.231  52.420
65739W        W57663  38.734  32.209  50.156
65740W        W57664  38.206  23.258  50.619
65741W        W57665   0.267  25.258  52.446
65742W        W57666  24.213  45.222  51.496
65743W        W57667  24.239  25.227  51.490
65744W        W57668  37.691  30.748  52.408
65745W        W57669  41.214  38.722  50.127
65746W        W57670   5.763   8.758  50.621
65747W        W57671  25.717  45.724  50.143
65748W        W57672  22.741  35.716  51.511
65749W        W57673  16.771  38.724  51.511
65750W        W57674   6.745  14.728  51.524
65751W        W57675  34.220  22.251  51.490
65752W        W57676  25.249  37.715  50.612
65753W        W57677  32.230  15.766  52.436
65754W        W57678  39.732  25.213  49.704
65755W        W57679  28.738  46.691  53.809
65756W        W57680  26.250  27.753  53.329
65757W        W57681  20.234  20.723  50.146
65758W        W57682  21.727  12.277  53.355
65759W        W57683  30.223   8.283  50.133
65760W        W57684  37.216   1.265  53.813
65761W        W57685  15.243  44.718  53.320
65762W        W57686  22.736  41.724  51.078
65763W        W57687  31.746  21.261  51.980
65764W        W57688  18.260  37.719  53.804
65765W        W57689  24.259   4.781  50.595
65766W        W57690   6.739  33.704  50.594
65767W        W57691   0.277   3.251  53.345
65768W        W57692  16.243  17.263  52.904
65769W        W57693  14.766  34.722  51.068
65770W        W57694  15.236  21.760  53.348
65771W        W57695  26.712  12.237  53.348
65772W        W57696  34.222  40.721  50.146
65773W        W57697  42.681  17.745  53.811
65774W        W57698  17.242   0.278  52.440
65775W        W57699  19.754  25.732  50.601
65776W        W57700   7.767  20.266  52.892
65777W        W57701  15.734  48.219  52.862
65778W        W57702   4.259  42.212  52.428
65779W        W57703  13.747  40.204  51.976
65780W        W57704  24.227   2.769  51.037
65781W        W57705   1.766  24.210  53.335
65782W        W57706  47.199   1.254  51.961
65783W        W57707  20.266   5.790  51.975
65784W        W57708  16.738  32.710  53.327
65785W        W57709  11.764  19.723  51.047
65786W        W57710  16.225   2.280  52.430
65787W        W57711  40.700  43.201  49.683
65788W        W57712  36.735   3.775  51.508
65789W        W57713  47.201  44.710  50.587
65790W        W57714   2.279  17.736  53.351
65791W        W57715   1.768  14.760  52.879
65792W        W57716  14.737  21.225  52.421
65793W        W57717  24.725  14.739  50.163
65794W        W57718   7.242  39.723  52.411
65795W        W57719  31.238  24.720  49.693
65796W        W57720  37.217  17.744  53.358
65797W        W57721  28.245  22.254  50.126
65798W        W57722  25.708   0.286  50.616
65799W        W57723   6.286  29.235  50.622
65800W        W57724   5.767  14.727  50.159
65801W        W57725  17.230   9.776  51.950
65802W        W57726  24.751  45.222  53.339
65803W        W57727   3.790  46.694  49.696
65804W        W57728  33.720  32.727  51.048
65805W        W57729  42.195  39.731  53.352
65806W        W57730  32.719  47.688  50.126
65807W        W57731  14.744  40.703  50.132
65808W        W57732  10.281  39.728  50.604
65809W        W57733  41.230  10.743  51.503
65810W        W57734  11.267  29.222  51.514
65811W        W57735  36.204  46.202  53.786
65812W        W57736  34.201  29.729  49.705
65813W        W57737  11.253  16.748  51.532
65814W        W57738  36.708  46.719  49.698
65815W        W57739  24.744  22.245  52.410
65816W        W57740  34.739  41.216  51.503
65817W        W57741  38.705  18.228  53.776
65818W        W57742  27.250  17.233  53.777
65819W        W57743   3.788  42.717  52.865
65820W        W57744  33.725   3.287  51.063
65821W        W57745   3.780  23.229  49.693
65822W        W57746  31.738  24.224  53.798
65823W        W57747  32.224  25.745  53.344
65824W        W57748  20.748  25.236  49.687
65825W        W57749  31.236  41.214  52.893
65826W        W57750  30.737   4.766  50.578
65827W        W57751   9.757  24.730  50.147
65828W        W57752   8.748  16.254  51.050
65829W        W57753  44.222  40.703  49.699
65830W        W57754  31.242  31.232  50.131
65831W        W57755  14.765  26.222  50.152
65832W        W57756   7.287  42.691  51.532
65833W        W57757  30.725  43.681  53.350
65834W        W57758  48.179  40.699  51.044
65835W        W57759  33.734   0.763  51.533
65836W        W57760  25.221  44.690  51.530
65837W        W57761  41.711  20.749  52.425
65838W        W57762  47.704  39.206  51.967
65839W        W57763   6.746   3.778  50.135
65840W        W57764  30.228  22.251  52.881
65841W        W57765   0.798  24.747  53.784
65842W        W57766  38.235  21.749  51.958
65843W        W57767  13.774   0.271  53.776
65844W        W57768  11.244  14.741  50.595
65845W        W57769  13.743  17.258  51.991
65846W        W57770  46.716   1.761  49.681
65847W        W57771   1.265  18.233  52.893
65848W        W57772  13.775  30.710  53.346
65849W        W57773  13.276  44.723  52.870
65850W        W57774   7.256  23.222  49.670
65851W        W57775  15.764  30.246  51.056
65852W        W57776  20.220  13.253  51.076
65853W        W57777  40.203   1.767  49.685
65854W        W57778   7.288  44.684  50.133
65855W        W57779   8.259  47.216  51.984
65856W        W57780  29.736  10.771  51.982
65857W        W57781   1.768  39.191  52.895
65858W        W57782  33.716  46.201  53.316
65859W        W57783  23.227  45.197  51.514
65860W        W57784  23.754  22.721  49.700
65861W        W57785  38.692   9.762  52.880
65862W        W57786   5.256  32.223  52.440
65863W        W57787  37.191  43.196  49.701
65864W        W57788  30.701  11.258  52.874
65865W        W57789  37.722   8.280  50.596
65866W        W57790  22.745  19.730  52.441
65867W        W57791  31.735  20.744  50.598
65868W        W57792   6.273  34.222  50.615
65869W        W57793  16.250  45.194  53.357
65870W        W57794  10.245  14.232  50.583
65871W        W57795  43.197  18.228  53.349
65872W        W57796   2.278  23.251  50.138
65873W        W57797   8.783  28.738  49.673
65874W        W57798  13.748   3.257  53.810
65875W        W57799  39.709  16.766  50.164
65876W        W57800  30.227  35.715  51.523
65877W        W57801   8.777  39.213  51.529
65878W        W57802   2.790  14.250  50.602
65879W        W57803  25.228  48.217  53.814
65880W        W57804  45.677   3.762  49.702
65881W        W57805   4.265   6.271  53.346
65882W        W57806  16.742  12.773  49.684
65883W        W57807  14.745  44.180  49.670
65884W        W57808  38.686  36.691  50.614
65885W        W57809   4.243  31.719  51.946
65886W        W57810  19.265   4.756  51.046
65887W        W57811   3.285  31.715  50.579
65888W        W57812  36.717  23.724  50.149
65889W        W57813   2.247  25.235  50.616
65890W        W57814  17.239  36.701  51.526
65891W        W57815  20.250  27.221  49.707
65892W        W57816  11.258  30.201  51.991
65893W        W57817  42.226  48.184  52.430
65894W        W57818  10.761  29.717  50.584
65895W        W57819  38.706  37.705  52.428
65896W        W57820  47.674  24.735  53.781
65897W        W57821  38.188  19.238  52.414
65898W        W57822  10.265  31.746  53.806
65899W        W57823  18.750  30.723  53.324
65900W        W57824  45.723  31.217  50.166
65901W        W57825  21.255   7.286  53.345
65902W        W57826  14.746   3.793  52.860
65903W        W57827  39.215  25.740  52.423
65904W        W57828  29.736  35.721  51.038
65905W        W57829  18.746  26.751  52.411
65906W        W57830   0.270   4.264  50.578
65907W        W57831  34.740  15.756  50.607
65908W        W57832  35.239   2.770  53.772
65909W        W57833  18.736  41.217  50.133
65910W        W57834  20.750   1.762  50.611
65911W        W57835  42.218  19.745  53.352
65912W        W57836  26.741   9.265  51.065
65913W        W57837  17.739  15.267  53.805
65914W        W57838  15.771  12.249  53.347
65915W        W57839  32.227  26.221  50.620
65916W        W57840  42.190  45.677  50.161
65917W        W57841  19.220  33.728  53.351
65918W        W57842  31.746   4.287  51.060
65919W        W57843  18.256  45.723  53.798
65920W        W57844  33.724  45.710  51.056
65921W        W57845  10.750   7.276  50.166
65922W        W57846  43.695  32.223  51.978
65923W        W57847   5.265  16.748  50.159
65924W        W57848   1.248  41.694  49.684
65925W        W57849  15.270  44.206  52.895
65926W        W57850  22.226  29.237  50.611
65927W        W57851  11.265   4.279  49.691
65928W        W57852  27.213  14.729  52.413
65929W        W57853  22.739  31.720  51.073
65930W        W57854  24.248  47.690  49.681
65931W        W57855   5.774   8.746  51.500
65932W        W57856  29.205  20.745  50.590
65933W        W57857  14.251  11.232  53.803
65934W        W57858  41.687  13.749  53.806
65935W        W57859  30.730  36.702  49.698
65936W        W57860  41.215   8.273  51.066
65937W        W57861   9.270   0.771  50.579
65938W        W57862  14.234  22.214  51.521
65939W        W57863   7.250  26.224  51.066
65940W        W57864  35.735  31.742  51.508
65941W        W57865  20.759  26.717  52.868
65942W        W57866  38.201  43.712  51.961
65943W        W57867  15.246  25.250  52.893
65944W        W57868  32.198  43.686  53.332
65945W        W57869  17.253  38.686  53.795
65946W        W57870  28.218  40.732  51.523
65947W        W57871  25.233  27.216  49.709
65948W        W57872  22.216  14.757  53.780
65949W        W57873  24.755  37.693  51.068
65950W        W57874  25.730   1.768  49.687
65951W        W57875   0.773   2.781  53.784
65952W        W57876  40.214  12.754  51.061
65953W        W57877  40.683   5.780  50.587
65954W        W57878  30.240  41.700  51.498
65955W        W57879  37.197   9.239  51.051
65956W        W57880   9.247   3.269  51.965
65957W        W57881   4.752   8.750  51.511
65958W        W57882  21.235  30.702  53.318
65959W        W57883  37.694   7.743  53.772
65960W        W57884  22.222   9.778  52.903
65961W        W57885  38.703  39.711  51.507
65962W        W57886  40.695  12.750  50.121
65963W        W57887  46.714  39.218  51.061
65964W        W57888  34.233   8.750  51.035
65965W        W57889  27.214  12.776  51.036
65966W        W57890  26.235  23.732  49.696
65967W        W57891   0.788  35.723  52.446
65968W        W57892  48.175  31.206  51.516
65969W        W57893  31.234   4.776  52.407
65970W        W57894   3.256   7.741  50.165
65971W        W57895  32.740  27.739  52.877
65972W        W57896   3.749  16.741  51.044
65973W        W57897  17.244  17.765  51.511
65974W        W57898  40.725   3.785  53.342
65975W        W57899  43.713  16.228  53.359
65976W        W57900  34.198   2.757  53.317
65977W        W57901  41.696  40.687  50.125
65978W        W57902  23.225   4.745  50.593
65979W        W57903   5.754   6.271  50.619
65980W        W57904  17.228  16.769  52.904
65981W        W57905  32.202  44.692  51.056
65982W        W57906  36.222  32.234  53.361
65983W        W57907  32.725  28.713  49.682
65984W        W57908  24.717   4.272  53.322
65985W        W57909  40.701   6.255  51.042
65986W        W57910   2.758  18.732  52.876
65987W        W57911   1.257   9.244  52.438
65988W        W57912  18.749  40.705  52.446
65989W        W57913  46.691  15.763  50.121
65990W        W57914  23.730  15.249  53.317
65991W        W57915   6.772  26.228  52.439
65992W        W57916  34.743  19.231  50.598
65993W        W57917  10.243   5.780  52.437
65994W        W57918  17.759  32.243  51.504
65995W        W57919   9.734  15.761  53.356
65996W        W57920  20.234   7.257  52.883
65997W        W57921  13.733   1.295  52.868
65998W        W57922  38.197  31.236  50.162
65999W        W57923  23.232   9.771  53.354
66000W        W57924  15.752  23.251  53.808
66001W        W57925  32.699   7.255  51.065
66002W        W57926  13.237  28.219  53.796
66003W        W57927   9.260  10.246  52.419
66004W        W57928  28.213  19.766  49.666
66005W        W57929  20.243  14.263  52.884
66006W        W57930  11.242  47.189  52.412
66007W        W57931  21.230   6.241  52.904
66008W        W57932  27.220   4.791  53.347
66009W        W57933  43.222  47.218  53.814
66010W        W57934  16.747  20.730  53.357
66011W        W57935  31.245  38.703  49.700
66012W        W57936  37.731  32.739  50.141
66013W        W57937  44.699  43.226  51.507
66014W        W57938  10.246  28.215  52.884
66015W        W57939  25.223   9.758  53.775
66016W        W57940  48.171  26.737  51.494
66017W        W57941  27.731  39.691  50.622
66018W        W57942  25.757  28.732  49.671
66019W        W57943  31.206  36.207  50.137
66020W        W57944  14.775  43.228  53.346
66021W        W57945  17.239  48.193  51.963
66022W        W57946  33.741  32.697  50.589
66023W        W57947   1.271  47.690  50.591
66024W        W57948  14.235  44.198  53.814
66025W        W57949   0.793   2.257  50.604
66026W        W57950  26.244  35.225  51.074
66027W        W57951  37.217  29.240  49.704
66028W        W57952  37.735  24.727  51.070
66029W        W57953  37.196   0.776  51.973
66030W        W57954  41.215  44.209  50.584
66031W        W57955  40.199  39.210  53.784
66032W        W57956  28.236  36.193  53.342
66033W        W57957  15.746  38.711  50.131
66034W        W57958   2.248  18.739  52.420
66035W        W57959  33.239   1.296  53.350
66036W        W57960  31.227  30.205  50.163
66037W        W57961  31.733   4.255  51.518
66038W        W57962   1.263  15.760  51.519
66039W        W57963  17.751  41.217  53.779
66040W        W57964  24.739  36.724  51.052
66041W        W57965  44.694  35.720  50.590
66042W        W57966   6.263  48.195  50.129
66043W        W57967  13.276   9.284  53.354
66044W        W57968  39.234  35.237  51.953
66045W        W57969  35.693  43.696  53.798
66046W        W57970  13.772  47.690  50.588
66047W        W57971  33.716  29.214  50.128
66048W        W57972  13.752   9.238  50.129
66049W        W57973  46.699  25.738  52.867
66050W        W57974   2.757  16.742  53.808
66051W        W57975  26.214  22.242  53.783
66052W        W57976  48.184  24.741  53.329
66053W        W57977  10.246  37.723  53.772
66054W        W57978  33.733  26.749  51.534
66055W        W57979  11.240  30.715  53.349
66056W        W57980  46.690  47.676  51.952
66057W        W57981  16.250  23.218  51.504
66058W        W57982   6.772  47.692  49.705
66059W        W57983  25.756  35.712  50.604
66060W        W57984  13.246  47.201  53.325
66061W        W57985  31.246   0.283  52.443
66062W        W57986  30.220  38.196  50.593
66063W        W57987  42.695  21.222  52.446
66064W        W57988  37.697  26.243  51.531
66065W        W57989   3.779  17.267  50.605
66066W        W57990  27.234  30.702  51.968
66067W        W57991  14.235  21.718  52.860
66068W        W57992   8.284  29.251  53.811
66069W        W57993   6.742  41.688  51.073
66070W        W57994  30.240  47.707  49.699
66071W        W57995  12.731  33.234  51.503
66072W        W57996  13.741  11.271  51.959
66073W        W57997  24.729  48.216  49.675
66074W        W57998  12.269  46.223  52.889
66075W        W57999  40.713  10.262  52.903
66076W        W58000  45.678   8.274  52.405
66077W        W58001  36.195  19.747  51.521
66078W        W58002   7.766  36.237  51.954
66079W        W58003  23.754   4.246  50.140
66080W        W58004   3.269  41.194  50.152
66081W        W58005  32.244   5.743  53.326
66082W        W58006  42.706  31.229  50.138
66083W        W58007  39.721  20.762  50.134
66084W        W58008  47.200  24.212  51.035
66085W        W58009  41.725   5.271  49.706
66086W        W58010  30.203  26.742  49.699
66087W        W58011  43.197  27.711  52.418
66088W        W58012   6.760  30.735  49.693
66089W        W58013  16.772  35.715  49.686
66090W        W58014  43.700  23.715  50.141
66091W        W58015  41.188  31.719  49.677
66092W        W58016   0.765  39.685  50.143
66093W        W58017  10.744  20.751  50.158
66094W        W58018  13.252   7.748  53.352
66095W        W58019   0.760  11.734  52.417
66096W        W58020  27.707  15.236  53.348
66097W        W58021  14.235  42.688  52.412
66098W        W58022  13.264  28.703  50.135
66099W        W58023  20.227  21.237  52.418
66100W        W58024  31.233   0.253  53.354
66101W        W58025  18.736   3.247  53.354
66102W        W58026   4.278  10.272  53.343
66103W        W58027  33.215   4.247  50.620
66104W        W58028   3.776   0.281  51.952
66105W        W58029  17.250   1.261  50.602
66106W        W58030   7.272  19.767  53.791
66107W        W58031  35.204  10.247  51.518
66108W        W58032  13.242  38.218  53.774
66109W        W58033  20.763  36.708  51.509
66110W        W58034  22.230   2.755  53.317
66111W        W58035   8.783   6.745  51.948
66112W        W58036  20.757   7.773  52.406
66113W        W58037  38.708  28.214  52.876
66114W        W58038  30.248  27.252  51.973
66115W        W58039  41.714  45.684  52.871
66116W        W58040  13.774  44.192  51.990
66117W        W58041   2.274  45.707  49.694
66118W        W58042  38.694  15.772  50.130
66119W        W58043  11.262  10.735  50.595
66120W        W58044  25.237  43.719  52.898
66121W        W58045   9.750  17.269  52.405
66122W        W58046  27.720  28.712  53.353
66123W        W58047  12.760  37.701  53.344
66124W        W58048  35.706   8.274  49.666
66125W        W58049  16.247  23.726  49.676
66126W        W58050  31.229  40.686  51.978
66127W        W58051   1.760   4.753  52.436
66128W        W58052  40.232  43.726  53.798
66129W        W58053  37.195  30.743  52.423
66130W        W58054  10.241  10.239  52.408
66131W        W58055  31.201  28.729  53.788
66132W        W58056  26.739  14.738  52.890
66133W        W58057   2.250  31.741  53.346
66134W        W58058   5.778  44.225  53.360
66135W        W58059  29.209  39.226  52.417
66136W        W58060  38.210   6.788  50.587
66137W        W58061  34.718  37.207  53.349
66138W        W58062  20.757  47.188  52.414
66139W        W58063  46.703  21.762  50.157
66140W        W58064  38.692   2.283  51.974
66141W        W58065  22.721  12.274  53.324
66142W        W58066  30.206  30.212  53.357
66143W        W58067  38.218  40.725  53.347
66144W        W58068  18.753  44.185  51.506
66145W        W58069  17.750  17.766  49.682
66146W        W58070  31.219   1.788  53.802
66147W        W58071  13.730  18.239  50.133
66148W        W58072  37.726  10.771  53.782
66149W        W58073  28.712   4.751  52.880
66150W        W58074  35.701  11.767  52.871
66151W        W58075  34.229  17.735  49.698
66152W        W58076  13.746  20.748  51.511
66153W        W58077  18.248  26.227  50.136
66154W        W58078  32.237  41.725  52.432
66155W        W58079  37.730  43.225  49.702
66156W        W58080  35.212  10.752  49.664
66157W        W58081  17.730  46.702  53.799
66158W        W58082  10.271  36.213  51.069
66159W        W58083  15.769  37.733  51.037
66160W        W58084  19.762  35.214  50.158
66161W        W58085  25.725  31.746  53.817
66162W        W58086  13.252   5.774  51.503
66163W        W58087  37.689  21.733  51.970
66164W        W58088  19.762   1.282  51.968
66165W        W58089  23.242   8.748  49.695
66166W        W58090  45.719   6.775  50.159
66167W        W58091  41.690  39.194  51.059
66168W        W58092  10.767  34.709  51.971
66169W        W58093  27.749  42.709  51.058
66170W        W58094   1.290   3.785  52.419
66171W        W58095  21.239   2.278  53.329
66172W        W58096  21.750  13.738  53.815
66173W        W58097  12.274  12.752  51.056
66174W        W58098  21.241   0.254  50.622
66175W        W58099   9.258  35.238  53.798
66176W        W58100  33.725  18.251  52.870
66177W        W58101  13.246  37.190  53.787
66178W        W58102  21.232  17.225  52.422
66179W        W58103  18.233  25.225  49.705
66180W        W58104   4.268   1.777  50.614
66181W        W58105  39.209  19.254  49.676
66182W        W58106  45.222  45.719  51.497
66183W        W58107  21.262   8.772  52.884
66184W        W58108   2.756  17.234  50.151
66185W        W58109   5.264  44.709  53.789
66186W        W58110  12.745  18.262  50.578
66187W        W58111  11.243  42.212  51.056
66188W        W58112  10.265  22.717  52.427
66189W        W58113  37.722  15.268  49.701
66190W        W58114  44.212  37.690  52.877
66191W        W58115  31.741   3.755  51.036
66192W        W58116  35.694  36.198  51.075
66193W        W58117  18.728  33.716  51.968
66194W        W58118  37.221  23.257  52.435
66195W        W58119  18.267  32.214  52.867
66196W        W58120  14.767  44.216  53.781
66197W        W58121  45.220  12.236  51.036
66198W        W58122   0.757  40.695  50.160
66199W        W58123  29.247  20.741  50.141
66200W        W58124  42.700  26.729  52.885
66201W        W58125  17.763  21.219  50.605
66202W        W58126  33.196  34.202  51.973
66203W        W58127  34.731   7.749  49.701
66204W        W58128  13.766  41.199  51.064
66205W        W58129   1.761  12.268  51.977
66206W        W58130  26.739   6.772  51.522
66207W        W58131   3.777  31.233  53.323
66208W        W58132  46.206  19.252  51.532
66209W        W58133  16.243  45.723  52.412
66210W        W58134  11.236  22.719  51.949
66211W        W58135  45.711  21.259  53.812
66212W        W58136  32.226  39.709  52.896
66213W        W58137   4.262  47.706  53.325
66214W        W58138  25.234  15.254  50.595
66215W        W58139   9.749  32.228  51.502
66216W        W58140  26.754  40.199  50.587
66217W        W58141  12.757  17.760  51.502
66218W        W58142  20.248  19.219  51.076
66219W        W58143   0.768  41.723  50.149
66220W        W58144   2.279  24.741  49.694
66221W        W58145  14.256   6.764  53.350
66222W        W58146  35.700  26.243  53.781
66223W        W58147  32.205  41.219  51.983
66224W        W58148  11.254  44.198  50.595
66225W        W58149   9.276  41.697  53.322
66226W        W58150   2.766  40.209  52.897
66227W        W58151  37.212  19.753  53.318
66228W        W58152  34.740  42.208  52.860
66229W        W58153  45.715  16.240  51.508
66230W        W58154   6.287   5.248  49.702
66231W        W58155  23.758  10.749  51.509
66232W        W58156  41.682  39.709  51.991
66233W        W58157  13.262  42.191  53.808
66234W        W58158  46.179  29.712  49.693
66235W        W58159  10.282  24.216  52.865
66236W        W58160  31.736  22.742  50.583
66237W        W58161  10.767   5.273  49.685
66238W        W58162   8.748  27.233  52.874
66239W        W58163   7.745  36.709  51.073
66240W        W58164  22.250   7.245  50.141
66241W        W58165  46.674  19.752  51.515
66242W        W58166  14.734  37.727  50.161
66243W        W58167  12.276  38.731  51.077
66244W        W58168  17.721  26.718  49.693
66245W        W58169   2.787   9.736  49.702
66246W        W58170   5.742   7.781  51.976
66247W        W58171  41.712  44.212  49.685
66248W        W58172   8.286  47.709  50.137
66249W        W58173  35.735  25.737  53.323
66250W        W58174  21.748  12.758  53.811
66251W        W58175   8.743  44.199  52.880
66252W        W58176  21.734   7.787  51.040
66253W        W58177  16.266  29.712  52.427
66254W        W58178  30.237  27.244  50.618
66255W        W58179  15.228  16.723  52.904
66256W        W58180  32.735   4.274  53.318
66257W        W58181  44.701  32.703  50.152
66258W        W58182  15.250   6.745  51.506
66259W        W58183  10.273  10.755  50.587
66260W        W58184  25.223  17.767  51.074
66261W        W58185  24.246  28.238  51.983
66262W        W58186  35.203  29.218  52.415
66263W        W58187  24.718  48.200  53.787
66264W        W58188  18.723  25.221  53.799
66265W        W58189   1.770   8.283  52.889
66266W        W58190  29.727  41.692  51.499
66267W        W58191   3.754  12.770  52.888
66268W        W58192  20.246   2.258  49.682
66269W        W58193   3.751  25.210  49.673
66270W        W58194  34.224  31.742  53.322
66271W        W58195  36.191  39.726  53.316
66272W        W58196  35.240  25.232  51.048
66273W        W58197  17.250   7.286  53.321
66274W        W58198  17.228   0.273  51.072
66275W        W58199  13.232  45.704  51.520
66276W        W58200  29.736  43.197  52.437
66277W        W58201   9.235  15.774  52.893
66278W        W58202  28.715  38.231  49.675
66279W        W58203  13.756   9.740  53.809
66280W        W58204   8.238  41.697  52.891
66281W        W58205  18.733  20.734  51.073
66282W        W58206  15.767  32.230  49.702
66283W        W58207  29.224  39.708  51.979
66284W        W58208  25.245  12.751  52.408
66285W        W58209  31.216  25.720  51.494
66286W        W58210  14.275  23.729  52.869
66287W        W58211  39.703   1.756  51.960
66288W        W58212  20.263  39.686  49.679
66289W        W58213  23.723  39.734  53.800
66290W        W58214  43.709  18.751  50.613
66291W        W58215  45.680  24.245  50.145
66292W        W58216  32.719  10.273  52.882
66293W        W58217  48.172  28.752  53.344
66294W        W58218  19.258  17.724  50.599
66295W        W58219  33.218  30.211  52.903
66296W        W58220  40.690   3.764  50.579
66297W        W58221  28.242  44.704  53.317
66298W        W58222  31.743  40.712  52.866
66299W        W58223   4.752   2.788  52.438
66300W        W58224   6.262   4.770  51.494
66301W        W58225  26.223  23.229  49.670
66302W        W58226   1.788   4.776  53.336
66303W        W58227  33.208  40.697  50.156
66304W        W58228   2.761  11.280  52.436
66305W        W58229  31.730  30.210  53.326
66306W        W58230  14.758  14.235  51.960
66307W        W58231  27.710   6.778  52.439
66308W        W58232  44.178  21.715  52.894
66309W        W58233   7.759  45.206  52.886
66310W        W58234  47.193   2.294  52.864
66311W        W58235  28.210  14.243  50.589
66312W        W58236  30.734  17.248  52.445
66313W        W58237  25.235  29.723  51.959
66314W        W58238   2.748  25.709  49.710
66315W        W58239  32.744  44.182  52.885
66316W        W58240  10.766  33.205  51.042
66317W        W58241  14.244  10.268  52.886
66318W        W58242  22.715  41.714  50.133
66319W        W58243   5.781  38.212  49.682
66320W        W58244   9.775  38.234  50.151
66321W        W58245  29.714  26.234  53.776
66322W        W58246  10.760   4.277  50.137
66323W        W58247  20.720  48.199  53.782
66324W        W58248  42.229  17.744  50.164
66325W        W58249  30.215  36.738  53.317
66326W        W58250  17.758  19.720  51.964
66327W        W58251  31.228  37.710  53.811
66328W        W58252  27.220  33.709  51.531
66329W        W58253  23.741  45.197  50.583
66330W        W58254  20.728   1.758  51.528
66331W        W58255   7.265  36.698  50.154
66332W        W58256  44.710   4.256  50.602
66333W        W58257  22.239  20.717  53.324
66334W        W58258  30.699  38.204  52.416
66335W        W58259  26.730  19.268  50.150
66336W        W58260  42.195  40.229  50.130
66337W        W58261  16.762  44.188  50.165
66338W        W58262  38.699  11.281  52.881
66339W        W58263   5.770  40.725  49.670
66340W        W58264  32.203  18.254  51.982
66341W        W58265  18.767  33.196  51.068
66342W        W58266  25.710   4.271  49.683
66343W        W58267  16.745  25.249  51.532
66344W        W58268   7.264  48.199  51.977
66345W        W58269  14.756  42.219  49.680
66346W        W58270  11.258  10.234  52.419
66347W        W58271   1.254  15.225  53.795
66348W        W58272  40.194  21.240  53.796
66349W        W58273  48.184  18.752  53.346
66350W        W58274  12.772  39.234  50.595
66351W        W58275  11.778   6.777  50.130
66352W        W58276  37.720  32.199  53.318
66353W        W58277  30.228  30.218  50.161
66354W        W58278   8.259  21.231  53.325
66355W        W58279  16.262  11.241  53.792
66356W        W58280  17.753  15.267  52.412
66357W        W58281  30.720  30.718  53.352
66358W        W58282   6.286   9.267  51.047
66359W        W58283  47.718   1.758  49.687
66360W        W58284  17.738  20.253  51.516
66361W        W58285  20.757  37.205  53.318
66362W        W58286  38.729  44.685  49.698
66363W        W58287  46.182  47.693  51.504
66364W        W58288  26.232  22.745  52.418
66365W        W58289  41.707   5.767  52.879
66366W        W58290   9.780  16.744  53.346
66367W        W58291  34.710  23.723  50.578
66368W        W58292  17.736  27.255  51.524
66369W        W58293  18.719   9.768  53.782
66370W        W58294  45.724  25.225  52.403
66371W        W58295  31.210  22.748  52.862
66372W        W58296   6.787  18.765  53.817
66373W        W58297  29.237  11.236  49.668
66374W        W58298   7.266  44.717  53.804
66375W        W58299  11.750  34.730  51.506
66376W        W58300   4.270  30.223  50.160
66377W        W58301  30.729  41.726  50.132
66378W        W58302  16.244  18.733  52.865
66379W        W58303   1.286  11.735  51.964
66380W        W58304   9.236  45.690  52.875
66381W        W58305   4.743  28.228  52.410
66382W        W58306   1.254  14.771  51.070
66383W        W58307  42.689  19.258  51.035
66384W        W58308  32.701  24.249  51.988
66385W        W58309  44.201  45.186  50.162
66386W        W58310   1.776  42.709  53.791
66387W        W58311  16.742  39.214  51.053
66388W        W58312   4.763  36.696  52.446
66389W        W58313  27.231  20.717  49.694
66390W        W58314  13.743  22.741  52.864
66391W        W58315  21.736  33.196  52.422
66392W        W58316   9.764  11.271  51.073
66393W        W58317  20.758  48.217  53.355
66394W        W58318  40.688  39.731  53.360
66395W        W58319  18.236  22.230  53.351
66396W        W58320  39.195  13.768  53.319
66397W        W58321  36.721  26.746  52.425
66398W        W58322  25.244  36.718  52.881
66399W        W58323   3.254  11.773  52.892
66400W        W58324  35.208   8.285  51.047
66401W        W58325  41.190  32.715  49.668
66402W        W58326  16.762  42.728  52.886
66403W        W58327  46.683  35.206  53.327
66404W        W58328   6.246  19.234  53.780
66405W        W58329  10.742  47.179  50.157
66406W        W58330  34.212  25.256  51.967
66407W        W58331  46.212  20.730  53.332
66408W        W58332  10.282  16.741  49.710
66409W        W58333   6.767  17.271  50.605
66410W        W58334  39.732  28.741  53.316
66411W        W58335  26.720  20.739  53.777
66412W        W58336  24.756  44.217  50.589
66413W        W58337  41.204  30.233  50.130
66414W        W58338  46.202  44.192  52.425
66415W        W58339  16.736  17.232  51.494
66416W        W58340  28.235   5.257  51.065
66417W        W58341  20.243  27.706  51.059
66418W        W58342  45.684  45.225  49.707
66419W        W58343  38.203  24.725  51.060
66420W        W58344  31.745  13.232  52.441
66421W        W58345   1.750  19.238  53.815
66422W        W58346  15.733  15.737  51.516
66423W        W58347   1.276  47.721  52.439
66424W        W58348  21.732  43.723  50.602
66425W        W58349  10.733   3.753  51.067
66426W        W58350  25.225  34.208  52.445
66427W        W58351   6.782  21.719  50.150
66428W        W58352  21.216   1.796  50.165
66429W        W58353   0.279  24.221  51.069
66430W        W58354  11.273   8.760  50.133
66431W        W58355  36.705  20.757  50.580
66432W        W58356  27.741  37.733  51.059
66433W        W58357  11.762  28.251  51.965
66434W        W58358   6.280  31.244  50.604
66435W        W58359  38.223   2.774  52.439
66436W        W58360   3.749  19.723  53.333
66437W        W58361  37.699   3.765  49.680
66438W        W58362   9.767   1.255  49.682
66439W        W58363  42.200  20.749  51.046
66440W        W58364  21.221  42.209  50.160
66441W        W58365  37.692  26.721  51.050
66442W        W58366  42.704  40.713  50.619
66443W        W58367  28.717  11.269  53.341
66444W        W58368   5.768  21.245  52.872
66445W        W58369  38.735  17.231  50.584
66446W        W58370  43.704  31.746  53.326
66447W        W58371  42.201   6.248  51.075
66448W        W58372  29.738  40.709  51.059
66449W        W58373  34.696  25.730  53.352
66450W        W58374  34.198  28.744  50.151
66451W        W58375   2.253   1.783  49.672
66452W        W58376  37.190   4.262  51.521
66453W        W58377  10.235  42.183  53.794
66454W        W58378  47.202  11.245  49.671
66455W        W58379   7.765  44.701  51.520
66456W        W58380  32.217  26.712  53.356
66457W        W58381  24.224   9.265  51.496
66458W        W58382  43.220  39.226  53.806
66459W        W58383  38.724  28.735  51.956
66460W        W58384  17.229  32.212  51.958
66461W        W58385  31.702  37.191  51.042
66462W        W58386  21.260  36.732  50.609
66463W        W58387  20.724   2.789  53.797
66464W        W58388  39.226  46.697  52.439
66465W        W58389  36.230  19.259  50.603
66466W        W58390   6.783   0.793  53.778
66467W        W58391  35.225  45.703  53.814
66468W        W58392  34.717   8.240  50.615
66469W        W58393  37.193  47.220  51.972
66470W        W58394  12.265   2.263  52.872
66471W        W58395  20.727  40.710  53.322
66472W        W58396  24.714   2.756  49.678
66473W        W58397  47.203   9.772  52.889
66474W        W58398  41.226  33.196  52.863
66475W        W58399  41.711  47.172  52.418
66476W        W58400  35.224  40.193  52.898
66477W        W58401  11.737  37.219  53.792
66478W        W58402  25.221  43.694  52.444
66479W        W58403  23.212  17.761  53.774
66480W        W58404  29.241  24.243  51.515
66481W        W58405  32.225   6.788  50.611
66482W        W58406  44.223  26.732  52.899
66483W        W58407   2.250   7.246  51.513
66484W        W58408   9.250  35.225  53.345
66485W        W58409  19.257  31.732  51.039
66486W        W58410   0.267  17.233  51.960
66487W        W58411  19.261  39.700  52.902
66488W        W58412   6.753  11.774  53.321
66489W        W58413  23.737  32.738  51.520
66490W        W58414   3.762  21.741  50.594
66491W        W58415  27.215  25.220  51.073
66492W        W58416  29.741  27.217  50.587
66493W        W58417  31.214   8.779  50.151
66494W        W58418  34.235  18.246  53.772
66495W        W58419  36.735  41.691  51.495
66496W        W58420  45.225  45.691  53.348
66497W        W58421  40.685  36.735  51.954
66498W        W58422   1.749  22.252  51.049
66499W        W58423  20.733  45.212  50.598
66500W        W58424   7.274  35.210  53.793
66501W        W58425  37.733  40.732  53.339
66502W        W58426  14.736  35.197  53.345
66503W        W58427  40.729   6.268  53.778
66504W        W58428  24.244   9.271  51.979
66505W        W58429   3.764   5.276  53.344
66506W        W58430  15.729   6.252  51.077
66507W        W58431  45.711  21.732  49.679
66508W        W58432   7.252  28.251  50.578
66509W        W58433  31.706  23.732  49.698
66510W        W58434   8.242   0.254  52.875
66511W        W58435  47.689  10.736  52.879
66512W        W58436   1.757   9.256  52.415
66513W        W58437  23.760  21.758  52.902
66514W        W58438  29.730  25.752  51.044
66515W        W58439  41.230  26.247  51.039
66516W        W58440  28.231  47.677  52.416
66517W        W58441  15.254   2.751  51.491
66518W        W58442  24.250  25.251  51.980
66519W        W58443  19.742  40.190  53.808
66520W        W58444  19.249   7.269  51.494
66521W        W58445  20.764  26.737  51.952
66522W        W58446   0.295  24.227  51.970
66523W        W58447  43.696  33.722  51.077
66524W        W58448  22.218   0.258  52.421
66525W        W58449  33.720  34.205  53.789
66526W        W58450  13.762  47.689  53.357
66527W        W58451  10.752   1.789  49.668
66528W        W58452  27.719  27.209  50.130
66529W        W58453  17.269  43.200  52.417
66530W        W58454  12.236  33.708  53.323
66531W        W58455  19.751  40.714  51.985
66532W        W58456  27.242  22.754  49.693
66533W        W58457  35.233  12.773  49.692
66534W        W58458  18.761  11.731  51.981
66535W        W58459  21.719  23.245  52.881
66536W        W58460  43.679  48.203  53.794
66537W        W58461  12.255  42.184  51.506
66538W        W58462  20.230  36.205  52.861
66539W        W58463  20.241  13.776  53.330
66540W        W58464   2.769  20.232  52.904
66541W        W58465   7.773  40.686  53.335
66542W        W58466  16.755  26.223  53.345
66543W        W58467  44.209  10.752  53.810
66544W        W58468  31.248  27.206  50.605
66545W        W58469  14.734   8.744  51.058
66546W        W58470  26.224  29.749  51.985
66547W        W58471  41.704  35.733  50.606
66548W        W58472  37.722  33.244  53.786
66549W        W58473  30.217  38.209  53.781
66550W        W58474   2.283  32.723  50.601
66551W        W58475  19.751  34.725  50.596
66552W        W58476   8.239  10.750  49.672
66553W        W58477   2.761   6.253  53.326
66554W        W58478  31.220  23.256  51.976
66555W        W58479  26.241  35.720  51.054
66556W        W58480  11.277  12.778  52.863
66557W        W58481  30.221  30.202  51.513
66558W        W58482  27.235  38.218  50.586
66559W        W58483  32.240  46.694  53.784
66560W        W58484  20.258   5.283  51.044
66561W        W58485   7.261  39.205  53.342
66562W        W58486  26.240  44.679  52.405
66563W        W58487   4.251  42.711  51.519
66564W        W58488  17.739  36.732  53.811
66565W        W58489  14.256   9.773  50.591
66566W        W58490  27.752  17.230  49.681
66567W        W58491   4.750  37.706  51.041
66568W        W58492   9.769  47.712  50.600
66569W        W58493  21.719  23.725  51.976
66570W        W58494  47.205  26.717  52.405
66571W        W58495  21.226  36.237  52.422
66572W        W58496  25.224  15.739  51.050
66573W        W58497  34.742  47.208  51.961
66574W        W58498   2.766   0.750  50.147
66575W        W58499   1.760  43.183  53.351
66576W        W58500  13.738  32.739  50.583
66577W        W58501  38.221  40.712  51.495
66578W        W58502  16.731  12.258  51.513
66579W        W58503  15.764  23.233  51.508
66580W        W58504  35.696   5.761  53.808
66581W        W58505  29.217  19.719  53.798
66582W        W58506  17.239   9.745  50.594
66583W        W58507  35.239  40.218  49.673
66584W        W58508   2.288  33.709  53.793
66585W        W58509  40.198  32.719  52.867
66586W        W58510  19.229  48.172  49.681
66587W        W58511  40.214  30.219  52.445
66588W        W58512  15.243   4.782  53.781
66589W        W58513   6.775  38.205  50.591
66590W        W58514  48.188  32.724  51.495
66591W        W58515  29.245  32.742  53.774
66592W        W58516  23.225  28.247  51.501
66593W        W58517  33.713  37.722  49.700
66594W        W58518  47.706   4.275  53.349
66595W        W58519  30.240  42.205  51.964
66596W        W58520  39.707  45.218  51.950
66597W        W58521  15.769  10.760  51.059
66598W        W58522  14.726  14.259  50.124
66599W        W58523   5.283  28.713  50.612
66600W        W58524  17.230  42.714  53.805
66601W        W58525   1.754  22.746  49.709
66602W        W58526  33.696   6.266  53.348
66603W        W58527  13.232  30.232  53.782
66604W        W58528   4.275  37.717  49.687
66605W        W58529  35.232  30.215  51.953
66606W        W58530  14.752   4.782  53.348
66607W        W58531  42.213   2.788  52.892
66608W        W58532   0.784  14.743  52.869
66609W        W58533  34.737  12.274  49.701
66610W        W58534   6.788  22.754  51.066
66611W        W58535  21.743   4.791  50.141
66612W        W58536  10.740  26.744  53.803
66613W        W58537  12.748  35.201  51.961
66614W        W58538  22.213   4.758  51.972
66615W        W58539  47.201  29.739  51.038
66616W        W58540  26.756  15.252  49.672
66617W        W58541  13.269  10.733  50.131
66618W        W58542   0.799  24.746  53.325
66619W        W58543  13.239   3.259  50.588
66620W        W58544  16.238  19.262  52.863
66621W        W58545  33.200  21.758  49.671
66622W        W58546  11.280  16.743  52.432
66623W        W58547  27.739  36.703  51.522
66624W        W58548  18.235  19.224  51.499
66625W        W58549  17.754  33.710  53.346
66626W        W58550  37.190  24.717  51.969
66627W        W58551  21.726  39.713  53.322
66628W        W58552  26.732  37.731  52.859
66629W        W58553   4.246  24.725  50.123
66630W        W58554  24.726  15.731  53.357
66631W        W58555  27.231  24.220  52.868
66632W        W58556  21.720  33.218  52.879
66633W        W58557  26.729  33.202  49.678
66634W        W58558   5.247  29.734  50.124
66635W        W58559  45.200  15.250  52.900
66636W        W58560  15.746   6.751  50.607
66637W        W58561  27.710  20.732  53.318
66638W        W58562   5.766  40.225  50.604
66639W        W58563  12.741   2.760  51.985
66640W        W58564   4.285   0.293  52.872
66641W        W58565  32.230   5.273  50.615
66642W        W58566  24.739  23.258  49.707
66643W        W58567  27.222  22.739  50.581
66644W        W58568  47.704  30.228  50.591
66645W        W58569  43.183  15.225  51.495
66646W        W58570  15.750  34.739  50.143
66647W        W58571   4.274   3.273  51.515
66648W        W58572   7.753  20.233  51.526
66649W        W58573   7.785   2.277  51.980
66650W        W58574   6.777   3.251  51.052
66651W        W58575  22.244  30.743  51.042
66652W        W58576  35.714   4.260  51.035
66653W        W58577  30.223   7.738  51.049
66654W        W58578  31.221  23.256  51.495
66655W        W58579  13.731   0.299  52.414
66656W        W58580  22.218   6.263  51.974
66657W        W58581  10.748  22.729  51.989
66658W        W58582   3.263  20.252  53.814
66659W        W58583  15.759  43.715  53.797
66660W        W58584   4.255  17.739  52.864
66661W        W58585  31.224  37.693  51.949
66662W        W58586  46.706  24.214  49.703
66663W        W58587  47.681  43.720  53.353
66664W        W58588  44.691  14.731  51.969
66665W        W58589  43.215  23.212  51.056
66666W        W58590  25.710  34.198  52.882
66667W        W58591  41.188  20.263  50.616
66668W        W58592  46.221  48.174  51.960
66669W        W58593  15.260  47.687  53.342
66670W        W58594  15.270  32.243  49.689
66671W        W58595   9.245   6.776  53.806
66672W        W58596  27.236   4.777  51.042
66673W        W58597   5.776   7.278  51.507
66674W        W58598  33.215  14.234  50.582
66675W        W58599  23.744  16.747  52.866
66676W        W58600  23.732  16.236  49.683
66677W        W58601  20.733  34.241  51.069
66678W        W58602  35.713  15.239  51.972
66679W        W58603  31.717   0.292  53.323
66680W        W58604  38.722   9.242  52.895
66681W        W58605  15.739  33.204  52.430
66682W        W58606  11.268  15.740  51.526
66683W        W58607   8.744  24.256  51.968
66684W        W58608  11.253  37.226  51.495
66685W        W58609   1.782  19.224  50.585
66686W        W58610  40.233  46.218  52.444
66687W        W58611  19.746  33.735  52.431
66688W        W58612  12.265  14.756  53.316
66689W        W58613  35.736  16.253  50.589
66690W        W58614  16.766  29.222  52.872
66691W        W58615   6.273  36.725  52.417
66692W        W58616  36.735   7.255  50.158
66693W        W58617   1.285  23.750  52.417
66694W        W58618   6.757   9.782  50.579
66695W        W58619  36.219   8.241  51.494
66696W        W58620  11.766  15.246  53.802
66697W        W58621   6.786  13.737  52.414
66698W        W58622   6.242  18.735  50.138
66699W        W58623  15.264  45.224  49.688
66700W        W58624  17.734  22.237  50.585
66701W        W58625  40.192  22.715  50.150
66702W        W58626  14.763  28.705  51.506
66703W        W58627   5.752   7.244  53.325
66704W        W58628   2.772  18.759  51.516
66705W        W58629  16.268  29.243  49.669
66706W        W58630  11.747  28.250  49.671
66707W        W58631   8.757  39.194  51.972
66708W        W58632   7.268  33.743  53.350
66709W        W58633   3.781  16.725  51.497
66710W        W58634  20.235   1.257  51.060
66711W        W58635  41.213  25.724  51.501
66712W        W58636  10.763   1.268  51.034
66713W        W58637  32.240  24.246  53.802
66714W        W58638  38.690  38.733  51.044
66715W        W58639   3.290  36.721  50.138
66716W        W58640  12.744  41.216  51.068
66717W        W58641  10.740   6.277  52.867
66718W        W58642  31.736  29.210  52.885
66719W        W58643  46.722  21.255  53.360
66720W        W58644  19.261   1.756  52.897
66721W        W58645  30.736  26.716  51.526
66722W        W58646  13.763  13.749  49.687
66723W        W58647  11.245  22.728  53.322
66724W        W58648  36.709  24.718  49.685
66725W        W58649  32.239  14.741  52.880
66726W        W58650  12.750  11.773  51.052
66727W        W58651  44.222   4.765  53.351
66728W        W58652   3.271  42.698  51.517
66729W        W58653  21.215  18.757  52.426
66730W        W58654   2.777  17.759  53.316
66731W        W58655   2.264   0.759  50.161
66732W        W58656  10.745  21.724  50.609
66733W        W58657  24.747  41.221  53.791
66734W        W58658  42.221  26.735  52.436
66735W        W58659  28.221  45.180  50.153
66736W        W58660  28.748  25.741  53.346
66737W        W58661   1.759  48.208  52.901
66738W        W58662   4.750  19.232  51.533
66739W        W58663  46.205  40.199  52.893
66740W        W58664  30.720  19.746  52.884
66741W        W58665  18.228  34.711  52.872
66742W        W58666   4.778   3.767  51.989
66743W        W58667  32.743  44.677  51.072
66744W        W58668   3.270  48.216  50.616
66745W        W58669   9.240  22.722  53.800
66746W        W58670  45.704  26.222  51.495
66747W        W58671  30.729  15.767  51.955
66748W        W58672  25.225  17.731  50.621
66749W        W58673  20.257   4.783  51.984
66750W        W58674  28.747   9.254  51.073
66751W        W58675  11.243  42.708  51.492
66752W        W58676  26.749  32.233  50.610
66753W        W58677  28.732   8.270  52.427
66754W        W58678  43.226  23.747  49.669
66755W        W58679  13.235   7.278  53.319
66756W        W58680   7.763   3.781  52.421
66757W        W58681  12.231   8.763  51.965
66758W        W58682  43.218  14.273  53.350
66759W        W58683   6.281  25.733  52.879
66760W        W58684  24.225  23.237  52.876
66761W        W58685   7.777  21.736  51.967
66762W        W58686  12.275  39.685  53.325
66763W        W58687  34.196  11.751  52.903
66764W        W58688  40.722  36.706  51.071
66765W        W58689  36.711  20.234  53.341
66766W        W58690  23.257  23.257  52.424
66767W        W58691  37.726  26.247  52.903
66768W        W58692  26.213  33.211  51.512
66769W        W58693  20.237  23.733  51.067
66770W        W58694  18.256  39.198  50.164
66771W        W58695   7.259  11.755  50.157
66772W        W58696  14.266   8.766  51.496
66773W        W58697  31.234  30.744  50.130
66774W        W58698  11.277  34.227  53.813
66775W        W58699  13.251  24.233  52.874
66776W        W58700   7.278  41.711  53.330
66777W        W58701  23.215  13.767  51.972
66778W        W58702  25.216   7.283  49.700
66779W        W58703  10.749  29.210  51.949
66780W        W58704  23.747  42.202  53.334
66781W        W58705  45.683  44.208  50.142
66782W        W58706  21.225  18.263  51.978
66783W        W58707  16.727  10.239  52.863
66784W        W58708  36.235  43.694  51.037
66785W        W58709   7.761  11.758  51.951
66786W        W58710  19.753  48.172  50.136
66787W        W58711  40.701  22.243  50.582
66788W        W58712   6.750  41.712  51.958
66789W        W58713  30.218  23.238  51.528
66790W        W58714  47.707  18.750  53.323
66791W        W58715  15.742  29.210  51.037
66792W        W58716  26.708   5.754  50.598
66793W        W58717  18.267  45.178  52.426
66794W        W58718  43.198  15.239  53.791
66795W        W58719  46.214  39.708  50.577
66796W        W58720  22.738  29.746  52.894
66797W        W58721  39.707  12.277  53.336
66798W        W58722  42.702  20.758  53.324
66799W        W58723   1.754  10.767  50.599
66800W        W58724  37.727   0.270  49.672
66801W        W58725  37.737  19.731  52.894
66802W        W58726  43.188  27.237  50.137
66803W        W58727   4.764  39.723  49.678
66804W        W58728  38.192   8.739  50.166
66805W        W58729  25.241  29.217  51.526
66806W        W58730  26.713   1.785  52.423
66807W        W58731  40.223  26.208  53.344
66808W        W58732   0.796   7.764  53.361
66809W        W58733  27.243  11.763  52.433
66810W        W58734   8.755  18.753  51.073
66811W        W58735  36.195  24.223  52.871
66812W        W58736  27.227  43.203  50.592
66813W        W58737  37.730  35.218  51.053
66814W        W58738  15.734  22.754  50.138
66815W        W58739  21.264   8.773  51.052
66816W        W58740   3.785  34.725  53.322
66817W        W58741   4.290   9.746  49.684
66818W        W58742  38.692   3.283  51.039
66819W        W58743   8.750   7.765  53.327
66820W        W58744  43.716  17.737  51.974
66821W        W58745  16.224  41.185  51.990
66822W        W58746  39.716  41.692  49.665
66823W        W58747  22.761   9.754  53.358
66824W        W58748   5.257   3.294  53.815
66825W        W58749  35.725  16.270  51.049
66826W        W58750  36.704  29.728  53.797
66827W        W58751  15.758   2.265  51.504
66828W        W58752  36.201  27.242  50.602
66829W        W58753   4.270  44.703  50.599
66830W        W58754  37.719   5.269  51.054
66831W        W58755  12.280  36.722  51.972
66832W        W58756  17.760  17.242  53.358
66833W        W58757  11.233  47.716  51.531
66834W        W58758  43.707  24.731  49.705
66835W        W58759  13.729  14.270  51.035
66836W        W58760  29.719  34.203  53.341
66837W        W58761  30.240  28.723  51.530
66838W        W58762  23.236  15.266  51.078
66839W        W58763  23.738   8.278  50.156
66840W        W58764  22.743  24.251  51.527
66841W        W58765  35.729  40.716  52.416
66842W        W58766  39.212   9.243  51.505
66843W        W58767  17.251  42.183  52.875
66844W        W58768   4.747  13.765  50.610
66845W        W58769  24.725  37.715  53.785
66846W        W58770  17.765  21.746  50.590
66847W        W58771  23.214  41.706  50.154
66848W        W58772  19.753   3.790  53.808
66849W        W58773   9.750  32.712  52.420
66850W        W58774  29.222   5.272  53.345
66851W        W58775  23.752  38.232  50.580
66852W        W58776  15.759  29.242  53.342
66853W        W58777  32.710  12.276  50.149
66854W        W58778  35.736  44.201  52.425
66855W        W58779  18.739   5.778  50.608
66856W        W58780  41.690  17.271  52.867
66857W        W58781   2.283   0.278  49.691
66858W        W58782  46.685  47.697  52.881
66859W        W58783  24.239  33.725  51.037
66860W        W58784  18.239  44.198  51.516
66861W        W58785  47.678  30.245  50.135
66862W        W58786  14.254  16.262  51.057
66863W        W58787  16.750  35.737  52.405
66864W        W58788  43.714  34.738  50.591
66865W        W58789  36.699   7.245  52.447
66866W        W58790  33.727   4.288  51.527
66867W        W58791  37.724   7.778  50.141
66868W        W58792  43.203   0.287  52.416
66869W        W58793  33.215   1.288  53.794
66870W        W58794  44.180  32.743  51.957
66871W        W58795  18.229  16.270  51.500
66872W        W58796  33.743  44.206  53.793
66873W        W58797  26.715  15.736  53.789
66874W        W58798   2.270  31.725  51.977
66875W        W58799   3.773  13.763  52.871
66876W        W58800  24.720  25.755  52.871
66877W        W58801  15.763  39.709  53.785
66878W        W58802  48.190  12.248  51.982
66879W        W58803  33.244  33.728  50.597
66880W        W58804  37.708  23.232  52.901
66881W        W58805  19.720   2.251  49.699
66882W        W58806   6.771   6.254  52.408
66883W        W58807  12.235  25.209  51.977
66884W        W58808  21.225   2.773  51.988
66885W        W58809  19.761  23.228  51.983
66886W        W58810  19.757   7.250  53.808
66887W        W58811   5.775  13.774  52.445
66888W        W58812  35.736  28.216  51.964
66889W        W58813  21.758  42.696  50.150
66890W        W58814   5.769  28.223  53.804
66891W        W58815  14.232  24.221  51.508
66892W        W58816   6.753   6.246  50.138
66893W        W58817  47.215  40.685  49.688
66894W        W58818  16.768  30.749  51.968
66895W        W58819  10.258  24.243  53.790
66896W        W58820  22.238  12.257  53.781
66897W        W58821  45.704  16.752  53.359
66898W        W58822   6.768  48.183  52.430
66899W        W58823  22.750  43.683  52.897
66900W        W58824  44.197  22.229  52.420
66901W        W58825  26.717  11.236  50.160
66902W        W58826  10.243  36.194  50.589
66903W        W58827  23.754  36.224  49.709
66904W        W58828  20.245   5.766  51.036
66905W        W58829  43.203  17.770  49.695
66906W        W58830  39.729   8.752  52.412
66907W        W58831   4.288  10.767  50.611
66908W        W58832  46.684  16.262  49.679
66909W        W58833  25.213  19.762  49.684
66910W        W58834  42.691  38.213  53.781
66911W        W58835  35.717  32.701  53.790
66912W        W58836  42.694  35.725  53.346
66913W        W58837  13.765  23.716  53.814
66914W        W58838  20.255  27.715  50.602
66915W        W58839  42.203  40.191  53.791
66916W        W58840  40.692  25.211  53.811
66917W        W58841  38.729  23.240  51.518
66918W        W58842  41.212  18.730  50.134
66919W        W58843  17.251  14.246  52.422
66920W        W58844  29.731  42.721  53.321
66921W        W58845  22.758  11.769  49.694
66922W        W58846  16.260   8.778  49.677
66923W        W58847  42.218  28.729  49.706
66924W        W58848   6.259  47.683  52.445
66925W        W58849   5.755  45.681  53.342
66926W        W58850   8.768  44.703  51.523
66927W        W58851  23.759  29.221  51.956
66928W        W58852  35.697   9.759  51.535
66929W        W58853  44.216  33.207  51.513
66930W        W58854   7.285  22.228  51.987
66931W        W58855  27.716  26.225  49.672
66932W        W58856  42.221  39.729  50.155
66933W        W58857  29.204  37.689  51.076
66934W        W58858  32.713   8.737  53.344
66935W        W58859  45.203  26.251  51.983
66936W        W58860  17.260  14.273  53.809
66937W        W58861   2.275  34.736  51.531
66938W        W58862   7.268  24.731  52.408
66939W        W58863  20.242  19.754  51.067
66940W        W58864  46.683  19.222  50.617
66941W        W58865  47.178  42.211  50.159
66942W        W58866  31.738  17.747  51.496
66943W        W58867  21.746  43.695  53.811
66944W        W58868   7.249  35.211  51.049
66945W        W58869  40.694   5.788  52.900
66946W        W58870   3.274  10.281  51.072
66947W        W58871   8.257  20.266  51.954
66948W        W58872  14.758  33.701  52.902
66949W        W58873  13.259  19.753  51.513
66950W        W58874  31.733   8.739  51.049
66951W        W58875   3.290  43.688  52.446
66952W        W58876  29.223  42.199  52.415
66953W        W58877  27.708  42.216  53.337
66954W        W58878   2.266  14.269  51.076
66955W        W58879   4.289   9.274  52.899
66956W        W58880  20.242  45.682  51.506
66957W        W58881  47.683  38.218  52.448
66958W        W58882  31.702  31.210  52.432
66959W        W58883  14.749   9.269  51.492
66960W        W58884  46.190  40.197  50.160
66961W        W58885  34.229  20.225  50.156
66962W        W58886  31.725   9.772  52.900
66963W        W58887  24.737  31.729  50.122
66964W        W58888  43.199   9.736  51.951
66965W        W58889  46.720   6.266  52.863
66966W        W58890  19.262   7.268  51.041
66967W        W58891  42.188  20.233  51.495
66968W        W58892  16.251  46.179  51.501
66969W        W58893  45.213  20.730  50.138
66970W        W58894  19.748  17.761  50.151
66971W        W58895  20.730   7.263  53.326
66972W        W58896  39.731  44.678  52.443
66973W        W58897  34.727  44.206  53.810
66974W        W58898   1.261   9.265  50.585
66975W        W58899  40.221  21.731  52.877
66976W        W58900  47.199  20.225  50.137
66977W        W58901  37.706   7.271  50.121
66978W        W58902  17.748  21.221  51.492
66979W        W58903  22.720  20.230  51.039
66980W        W58904  42.725  37.704  51.953
66981W        W58905  21.228  10.262  49.692
66982W        W58906  11.234  35.707  50.578
66983W        W58907   8.238   5.754  51.501
66984W        W58908  12.768   3.788  52.874
66985W        W58909   6.785  30.213  51.491
66986W        W58910   8.779  33.708  49.666
66987W        W58911  39.198  33.719  51.074
66988W        W58912  48.174  19.738  50.601
66989W        W58913  39.229  43.201  51.073
66990W        W58914  14.229  39.212  52.899
66991W        W58915  24.711  48.200  51.518
66992W        W58916   4.774  43.680  53.345
66993W        W58917  25.215  21.720  51.976
66994W        W58918   2.793  33.206  51.988
66995W        W58919  14.774  45.209  51.050
66996W        W58920   8.764  23.746  51.511
66997W        W58921   7.284  21.264  52.901
66998W        W58922   5.760   4.257  52.438
66999W        W58923   3.750   8.778  53.333
67000W        W58924  18.767   4.770  51.518
67001W        W58925  20.725   7.280  50.156
67002W        W58926  21.760   1.757  51.962
67003W        W58927  11.742  27.231  51.491
67004W        W58928  47.217  44.213  50.143
67005W        W58929  10.734  26.245  52.406
67006W        W58930  23.746  15.733  51.533
67007W        W58931  25.736  33.723  50.161
67008W        W58932  47.694  16.224  50.125
67009W        W58933  24.252  46.175  53.360
67010W        W58934  45.225  40.202  53.789
67011W        W58935  45.717   1.754  52.895
67012W        W58936  15.257  32.728  51.064
67013W        W58937  22.228   8.757  52.894
67014W        W58938   5.279  24.758  52.406
67015W        W58939  27.725   4.271  49.683
67016W        W58940  43.723  23.227  50.145
67017W        W58941  10.256   5.255  52.885
67018W        W58942   8.264  27.235  52.413
67019W        W58943  25.257  38.192  53.345
67020W        W58944  44.695  26.718  51.077
67021W        W58945  13.260  28.708  52.433
67022W        W58946  10.771  27.753  52.420
67023W        W58947  39.199  26.749  50.149
67024W        W58948   2.289  39.197  52.874
67025W        W58949  33.737  12.237  49.710
67026W        W58950  42.726  32.714  51.525
67027W        W58951  12.753  18.744  53.350
67028W        W58952  35.698  30.702  51.513
67029W        W58953  48.202  22.254  49.674
67030W        W58954  39.191  14.265  53.344
67031W        W58955  18.224  13.731  53.335
67032W        W58956   3.756  27.230  49.705
67033W        W58957  17.722  31.728  51.523
67034W        W58958  10.264  15.249  50.121
67035W        W58959  39.727  20.735  49.682
67036W        W58960  35.732  17.746  53.343
67037W        W58961   5.749  32.708  51.519
67038W        W58962   3.758  36.699  51.051
67039W        W58963  12.266   3.745  51.505
67040W        W58964   7.277  17.263  49.669
67041W        W58965  39.701   7.783  50.608
67042W        W58966   6.256   2.766  50.608
67043W        W58967   7.740  34.705  53.354
67044W        W58968  44.190  46.705  50.622
67045W        W58969  35.209  23.261  51.964
67046W        W58970  10.776  41.195  52.894
67047W        W58971  47.183  15.742  52.882
67048W        W58972  30.240  12.768  51.074
67049W        W58973  48.187  42.229  53.810
67050W        W58974  34.697   8.273  51.989
67051W        W58975  33.209  20.262  50.124
67052W        W58976  10.766  27.231  50.129
67053W        W58977  40.223  20.740  49.668
67054W        W58978  38.704  18.261  49.706
67055W        W58979  25.714  17.251  50.597
67056W        W58980  42.716  20.226  50.137
67057W        W58981  43.728  33.240  51.947
67058W        W58982  20.734  27.717  52.888
67059W        W58983  13.765  25.757  49.669
67060W        W58984   2.761  13.270  51.959
67061W        W58985   3.763   4.770  52.403
67062W        W58986  15.233  11.779  51.511
67063W        W58987  18.257  47.182  52.897
67064W        W58988   8.273  30.715  50.582
67065W        W58989   5.281  34.210  50.597
67066W        W58990  14.231  19.748  51.978
67067W        W58991  19.249   2.789  51.513
67068W        W58992  43.226  11.262  52.870
67069W        W58993  41.186  21.743  51.063
67070W        W58994  17.753  25.751  53.332
67071W        W58995  32.228  41.211  51.496
67072W        W58996  32.200  24.211  50.124
67073W        W58997  36.222  35.197  51.949
67074W        W58998  29.737  44.189  53.810
67075W        W58999  33.695  10.749  53.805
67076W        W59000  29.717  16.737  49.708
67077W        W59001   3.776  19.756  50.133
67078W        W59002  13.275  42.192  53.339
67079W        W59003  22.227  37.694  53.326
67080W        W59004  31.742  35.724  50.145
67081W        W59005  17.755  30.734  49.704
67082W        W59006  45.695  38.686  51.984
67083W        W59007  32.197  15.743  53.788
67084W        W59008  41.717  18.264  49.687
67085W        W59009  47.673  26.239  51.981
67086W        W59010  37.199  19.227  51.044
67087W        W59011   9.749  30.216  52.432
67088W        W59012  34.224   4.779  50.593
67089W        W59013  11.734   2.252  53.817
67090W        W59014  20.227   2.247  51.079
67091W        W59015  32.230   5.255  53.329
67092W        W59016  34.195  12.238  50.129
67093W        W59017   5.768   0.256  52.881
67094W        W59018  35.703   6.247  52.417
67095W        W59019  19.766   2.248  52.875
67096W        W59020  23.746   3.269  51.045
67097W        W59021  28.231  10.760  49.677
67098W        W59022  42.707   3.768  50.603
67099W        W59023  27.218  42.195  51.066
67100W        W59024  32.719  23.239  50.145
67101W        W59025  36.191  35.704  50.608
67102W        W59026  24.238  29.724  51.059
67103W        W59027  13.243   3.250  53.786
67104W        W59028  33.702  16.227  49.668
67105W        W59029   9.268   9.777  52.888
67106W        W59030  41.726  44.725  53.777
67107W        W59031  18.231  22.754  51.955
67108W        W59032  20.224  42.710  52.431
67109W        W59033   7.246  28.750  49.675
67110W        W59034  12.241  29.704  53.813
67111W        W59035  13.738  10.283  53.353
67112W        W59036  46.192   9.244  53.330
67113W        W59037  25.254  32.228  50.609
67114W        W59038   4.788   6.248  49.706
67115W        W59039  38.192  22.223  53.317
67116W        W59040  34.207  11.761  50.152
67117W        W59041  39.232  30.715  51.951
67118W        W59042  41.220  41.198  51.055
67119W        W59043  24.719  35.721  51.526
67120W        W59044   5.757  47.199  53.348
67121W        W59045   9.281  25.223  49.674
67122W        W59046  26.253  42.718  52.430
67123W        W59047   7.286  14.763  52.442
67124W        W59048  29.740  25.724  49.706
67125W        W59049  20.254  42.219  50.594
67126W        W59050   1.285   2.288  49.699
67127W        W59051  40.696  19.241  51.984
67128W        W59052  32.723   6.784  52.446
67129W        W59053  43.179  41.689  51.978
67130W        W59054  38.191  14.757  51.516
67131W        W59055  31.242  25.248  51.977
67132W        W59056  39.731  30.711  51.524
67133W        W59057   7.273   0.757  53.357
67134W        W59058   5.275  42.707  51.038
67135W        W59059  17.247  10.256  53.318
67136W        W59060  19.240  42.706  52.415
67137W        W59061  42.227  43.211  49.679
67138W        W59062  36.715   4.282  51.513
67139W        W59063   4.290   4.770  51.961
67140W        W59064  10.247   6.762  52.430
67141W        W59065  14.241   6.250  49.680
67142W        W59066  33.716  44.183  51.986
67143W        W59067  42.190  35.205  51.049
67144W        W59068  12.231  33.200  52.885
67145W        W59069  36.692  11.272  50.606
67146W        W59070  47.714  26.229  53.815
67147W        W59071  44.721  39.219  50.587
67148W        W59072  33.724   0.280  50.600
67149W        W59073  17.231   1.794  52.428
67150W        W59074   2.289  43.688  51.065
67151W        W59075  11.780  10.249  50.596
67152W        W59076   3.771  23.232  52.438
67153W        W59077   0.277  39.213  51.508
67154W        W59078   1.751  48.176  50.139
67155W        W59079  22.740  26.755  53.792
67156W        W59080  18.249  42.716  53.333
67157W        W59081  38.721  40.723  51.049
67158W        W59082  29.226  16.764  50.153
67159W        W59083  20.759  44.192  50.155
67160W        W59084  45.178  20.258  51.040
67161W        W59085  34.694  36.718  53.339
67162W        W59086  27.720  44.679  50.125
67163W        W59087  41.197  41.688  53.807
67164W        W59088  16.765  15.760  50.140
67165W        W59089  47.182  22.216  53.773
67166W        W59090  35.206  22.762  51.495
67167W        W59091  30.730  18.232  52.430
67168W        W59092   9.250   1.768  50.582
67169W        W59093   6.256   1.784  51.511
67170W        W59094  14.732  20.252  53.790
67171W        W59095   8.772   0.252  52.437
67172W        W59096   3.781  21.258  52.872
67173W        W59097  33.198  28.210  49.700
67174W        W59098  34.737   0.784  50.161
67175W        W59099  13.277  31.735  49.698
67176W        W59100  20.243  38.713  53.333
67177W        W59101  45.207  35.235  52.903
67178W        W59102   9.255  30.208  51.523
67179W        W59103  11.248   1.760  51.964
67180W        W59104  34.218  16.728  50.588
67181W        W59105  13.768  34.728  52.861
67182W        W59106  42.207  23.216  51.961
67183W        W59107  37.191   7.279  49.707
67184W        W59108  11.780  37.697  51.959
67185W        W59109  16.247  34.696  51.531
67186W        W59110  13.247   1.789  50.618
67187W        W59111  15.245   0.766  49.665
67188W        W59112  37.699  43.687  53.799
67189W        W59113  13.229  35.194  53.320
67190W        W59114  24.751   8.756  52.860
67191W        W59115   4.751  27.737  50.133
67192W        W59116  21.721  27.224  52.429
67193W        W59117  23.216  38.226  49.697
67194W        W59118  35.234  18.746  49.701
67195W        W59119  31.212  37.716  51.511
67196W        W59120  12.276  45.200  52.438
67197W        W59121  13.773  11.239  51.493
67198W        W59122  11.269  27.748  50.623
67199W        W59123   3.770   5.764  51.061
67200W        W59124  13.256  43.704  50.609
67201W        W59125  12.247   9.274  49.702
67202W        W59126  34.201  25.241  50.583
67203W        W59127  40.232  10.740  52.870
67204W        W59128  27.235  13.763  51.960
67205W        W59129   4.246  18.267  51.505
67206W        W59130   6.778  42.213  51.496
67207W        W59131  47.181   8.248  49.665
67208W        W59132  20.245  16.755  51.036
67209W        W59133  38.692  39.698  53.781
67210W        W59134  28.715   0.250  50.607
67211W        W59135  10.259   5.267  50.159
67212W        W59136  25.753  36.233  50.614
67213W        W59137  41.225  47.697  49.707
67214W        W59138  47.197  29.228  49.681
67215W        W59139   7.241  17.246  50.165
67216W        W59140   3.287   2.776  49.688
67217W        W59141  27.228  36.222  50.607
67218W        W59142  28.743  38.211  50.140
67219W        W59143  48.192  41.219  52.867
67220W        W59144  23.736  45.221  52.404
67221W        W59145  18.241  43.704  49.667
67222W        W59146  40.719  25.720  50.163
67223W        W59147  25.233   0.253  51.049
67224W        W59148  28.206  40.212  50.596
67225W        W59149  46.199   7.766  50.586
67226W        W59150  47.180  10.771  49.707
67227W        W59151  15.243  14.745  51.947
67228W        W59152  40.710  48.171  53.814
67229W        W59153  24.718   6.746  51.504
67230W        W59154  25.212  14.745  53.347
67231W        W59155  16.751  43.681  52.872
67232W        W59156  28.703  38.719  49.709
67233W        W59157  15.225  17.233  49.689
67234W        W59158  32.241  15.726  52.862
67235W        W59159  26.219  43.697  50.599
67236W        W59160  24.249  28.750  51.045
67237W        W59161  39.727  40.693  53.349
67238W        W59162   9.760  40.195  51.504
67239W        W59163  23.750  10.781  52.864
67240W        W59164  22.246  10.739  52.440
67241W        W59165  41.205  36.691  52.883
67242W        W59166  33.204  19.260  49.683
67243W        W59167   9.755  43.719  53.357
67244W        W59168  11.234  37.718  52.893
67245W        W59169  37.234   7.287  52.885
67246W        W59170  22.251   5.746  53.802
67247W        W59171  19.722  41.712  53.339
67248W        W59172  28.748  18.237  53.774
67249W        W59173  22.749   7.240  51.491
67250W        W59174  25.757  39.712  49.703
67251W        W59175  17.737  27.221  51.950
67252W        W59176  26.712  11.732  50.122
67253W        W59177  40.699  44.204  51.514
67254W        W59178  13.260   2.781  51.960
67255W        W59179  46.185  11.262  52.405
67256W        W59180  26.736  41.222  50.592
67257W        W59181  41.694  14.239  52.429
67258W        W59182  18.749  17.723  53.789
67259W        W59183  10.280  39.213  51.061
67260W        W59184  15.757  15.728  50.589
67261W        W59185   9.241  47.684  49.702
67262W        W59186   2.249  39.227  51.982
67263W        W59187  26.715  42.693  53.780
67264W        W59188  41.217  26.241  50.141
67265W        W59189  11.743   4.269  51.041
67266W        W59190  35.233  40.219  50.148
67267W        W59191  15.766   1.785  51.512
67268W        W59192   7.277   2.264  53.783
67269W        W59193  25.743  25.713  53.329
67270W        W59194  26.731  43.203  49.671
67271W        W59195  31.206   6.256  49.682
67272W        W59196  13.250  27.207  50.595
67273W        W59197  26.708  29.234  52.404
67274W        W59198  41.194  32.223  51.077
67275W        W59199  26.726  26.734  51.509
67276W        W59200  41.723  29.203  51.055
67277W        W59201  31.235   8.278  52.864
67278W        W59202   5.254  14.750  52.861
67279W        W59203  42.719  21.759  53.803
67280W        W59204   6.269  13.730  53.777
67281W        W59205   4.292  29.205  51.967
67282W        W59206   2.254  10.256  50.580
67283W        W59207  39.730   2.267  52.433
67284W        W59208  27.210  46.177  51.520
67285W        W59209  33.242  16.235  53.339
67286W        W59210   7.250   6.267  51.982
67287W        W59211  37.189  40.727  50.124
67288W        W59212  21.231   7.253  51.049
67289W        W59213  14.764  16.762  52.889
67290W        W59214  41.696  43.700  52.894
67291W        W59215  33.726  23.755  53.815
67292W        W59216  11.260  27.738  49.665
67293W        W59217   4.248  26.714  51.967
67294W        W59218   2.280  12.269  50.151
67295W        W59219   8.784  31.222  51.982
67296W        W59220   1.774  40.228  50.604
67297W        W59221   8.749  43.180  52.861
67298W        W59222  29.220  22.744  52.868
67299W        W59223  23.753  22.248  51.070
67300W        W59224  18.728  45.724  51.056
67301W        W59225  40.205  23.750  50.141
67302W        W59226  38.714  33.734  52.418
67303W        W59227  44.203  26.242  50.600
67304W        W59228   8.281  37.721  53.319
67305W        W59229  16.253   8.766  50.143
67306W        W59230   6.281  28.232  49.706
67307W        W59231  11.260  11.777  53.346
67308W        W59232  16.249  12.234  51.969
67309W        W59233  12.768  11.266  49.666
67310W        W59234  16.256   0.787  51.507
67311W        W59235   6.778   8.753  53.786
67312W        W59236  31.222  24.717  52.880
67313W        W59237  22.730  19.219  51.074
67314W        W59238  31.712  43.215  50.135
67315W        W59239   5.748  39.190  51.067
67316W        W59240  10.773  13.771  52.886
67317W        W59241  41.212  26.728  51.074
67318W        W59242  45.180  48.171  52.887
67319W        W59243  46.685  35.716  53.352
67320W        W59244  18.266  15.752  49.702
67321W        W59245   8.763   5.273  52.445
67322W        W59246  28.747  35.740  52.422
67323W        W59247  40.190  38.722  50.137
67324W        W59248  44.701  44.221  53.327
67325W        W59249  30.236  34.235  49.679
67326W        W59250  19.763  38.217  52.419
67327W        W59251  29.748  22.760  52.874
67328W        W59252  20.736  19.751  50.141
67329W        W59253  47.686  45.208  50.596
67330W        W59254  24.731  25.750  49.696
67331W        W59255  42.729  25.733  53.355
67332W        W59256  25.729  10.759  51.043
67333W        W59257   5.787  32.244  51.036
67334W        W59258  42.228   4.256  52.897
67335W        W59259  11.247  11.257  51.508
67336W        W59260  24.716  46.201  50.138
67337W        W59261  39.207  36.706  52.440
67338W        W59262  16.736  30.706  53.346
67339W        W59263  22.756  34.198  52.404
67340W        W59264  44.686   4.247  49.693
67341W        W59265  34.693   8.784  53.806
67342W        W59266  19.751   9.275  53.778
67343W        W59267  18.747  44.219  51.066
67344W        W59268  17.234  27.249  51.495
67345W        W59269  32.699  17.250  53.347
67346W        W59270  29.716  31.706  53.811
67347W        W59271  23.733  32.724  53.807
67348W        W59272  15.242  46.222  53.811
67349W        W59273   4.249   6.787  52.859
67350W        W59274  33.701  10.265  51.051
67351W        W59275   8.279  23.736  52.429
67352W        W59276  32.219   7.739  53.335
67353W        W59277  21.717  10.753  52.431
67354W        W59278  20.254  45.706  50.164
67355W        W59279  21.756  43.199  51.514
67356W        W59280  32.718  10.756  50.166
67357W        W59281  36.203  28.746  52.901
67358W        W59282   1.263  42.690  52.859
67359W        W59283  24.250  39.232  50.153
67360W        W59284  28.717  11.751  52.434
67361W        W59285  11.766  16.232  51.962
67362W        W59286  43.228   0.772  49.669
67363W        W59287   6.256  43.188  52.416
67364W        W59288  26.245  45.203  52.432
67365W        W59289  31.219  15.768  52.862
67366W        W59290  44.198   8.766  50.135
67367W        W59291   3.793  31.718  51.955
67368W        W59292   3.281   9.252  53.776
67369W        W59293  33.717   2.285  52.439
67370W        W59294  17.736   4.791  49.678
67371W        W59295  26.750   4.792  50.136
67372W        W59296  14.771  43.711  51.514
67373W        W59297  19.761  21.744  52.413
67374W        W59298  28.215   5.744  52.891
67375W        W59299   2.266  32.230  51.068
67376W        W59300  34.227  32.208  49.672
67377W        W59301  26.724  31.730  51.530
67378W        W59302  29.234  34.231  51.958
67379W        W59303  45.184  14.727  53.807
67380W        W59304   7.254  10.766  53.340
67381W        W59305  28.737  38.706  50.160
67382W        W59306  22.758  34.220  53.791
67383W        W59307  15.230  34.714  51.965
67384W        W59308  14.763  27.705  50.124
67385W        W59309  45.713  34.701  51.079
67386W        W59310  27.744  11.766  50.594
67387W        W59311   5.758  13.761  49.694
67388W        W59312   4.273  41.710  50.603
67389W        W59313  25.249   5.775  50.164
67390W        W59314  31.709  42.230  49.679
67391W        W59315  38.735  36.694  53.801
67392W        W59316   0.269  40.700  52.408
67393W        W59317  20.737  48.214  51.061
67394W        W59318  15.739  23.730  50.121
67395W        W59319  11.257  39.701  51.987
67396W        W59320  12.755  15.765  52.416
67397W        W59321  26.244  41.215  51.498
67398W        W59322  18.764   2.273  49.696
67399W        W59323  19.749   9.762  50.135
67400W        W59324  38.196   2.788  50.617
67401W        W59325  17.769  10.251  50.605
67402W        W59326   1.784   2.256  53.776
67403W        W59327   6.785  38.718  49.708
67404W        W59328  34.735  30.744  49.705
67405W        W59329  25.721  15.765  49.705
67406W        W59330  19.751  24.711  50.581
67407W        W59331  16.738   5.253  51.953
67408W        W59332  19.224  29.720  53.786
67409W        W59333  40.702  37.702  52.434
67410W        W59334  23.235  34.736  52.902
67411W        W59335   0.285   1.780  51.526
67412W        W59336  28.248   7.787  50.158
67413W        W59337  29.749  26.741  53.812
67414W        W59338  22.713  36.212  50.605
67415W        W59339  35.222  20.745  50.142
67416W        W59340  34.241  17.255  51.960
67417W        W59341  15.772  10.770  52.895
67418W        W59342  32.740  26.207  53.789
67419W        W59343   6.753  12.250  50.597
67420W        W59344  27.227  12.235  51.056
67421W        W59345  24.748  39.207  51.073
67422W        W59346  26.724  29.230  49.674
67423W        W59347   9.782  18.254  51.959
67424W        W59348  44.724  18.223  49.682
67425W        W59349   1.783  22.717  51.043
67426W        W59350   2.777  43.182  50.154
67427W        W59351  32.712   3.786  53.358
67428W        W59352  11.266  47.198  52.877
67429W        W59353  32.702  43.202  51.960
67430W        W59354   8.282  17.232  51.070
67431W        W59355  12.242  16.255  49.678
67432W        W59356  37.716  10.273  51.971
67433W        W59357   5.270  18.728  51.971
67434W        W59358   6.259  46.698  50.605
67435W        W59359  10.281  21.221  53.777
67436W        W59360  17.235  38.714  52.437
67437W        W59361  47.193  35.698  53.322
67438W        W59362   6.259  19.727  53.787
67439W        W59363  15.742  39.221  53.803
67440W        W59364  15.227   1.279  51.053
67441W        W59365  38.227  33.199  53.787
67442W        W59366  36.700  39.217  52.868
67443W        W59367  46.680  16.258  51.497
67444W        W59368  39.235  10.738  50.135
67445W        W59369  41.182  33.742  51.987
67446W        W59370  37.211  29.734  51.990
67447W        W59371   8.251  43.710  53.804
67448W        W59372  21.219  37.734  52.413
67449W        W59373  13.774   4.748  52.900
67450W        W59374  36.717  39.706  52.419
67451W        W59375   5.280  17.760  52.412
67452W        W59376  41.197   0.776  51.973
67453W        W59377  31.708  10.254  52.869
67454W        W59378  26.756  36.732  49.707
67455W        W59379  10.255   8.753  52.897
67456W        W59380  40.223  43.208  53.342
67457W        W59381  20.227  40.213  53.811
67458W        W59382  34.715  39.730  51.527
67459W        W59383  10.263  34.242  50.594
67460W        W59384  14.775  23.220  53.778
67461W        W59385   2.251  34.697  52.874
67462W        W59386  44.682  46.689  50.622
67463W        W59387  44.204  20.259  52.432
67464W        W59388  19.252  33.203  50.134
67465W        W59389  31.222  44.190  51.041
67466W        W59390  33.743  42.181  53.803
67467W        W59391  36.732   3.764  50.144
67468W        W59392  24.718  12.277  53.337
67469W        W59393  18.757  29.726  53.786
67470W        W59394  11.759  33.204  49.698
67471W        W59395  37.232  33.209  52.441
67472W        W59396   7.741  47.199  51.507
67473W        W59397  34.714  35.228  51.071
67474W        W59398  38.724  36.728  52.436
67475W        W59399  11.247   1.763  52.890
67476W        W59400  12.734   6.739  52.880
67477W        W59401  27.211   5.261  52.415
67478W        W59402  23.244  43.219  53.787
67479W        W59403  33.706   8.778  52.875
67480W        W59404  40.720  34.732  52.893
67481W        W59405   9.265  31.205  51.955
67482W        W59406  13.753  31.207  51.529
67483W        W59407  25.245  11.256  53.811
67484W        W59408  47.720  36.735  51.498
67485W        W59409  13.731  48.186  52.883
67486W        W59410  12.271   6.751  52.448
67487W        W59411  30.734   6.760  52.904
67488W        W59412   9.751  44.202  51.496
67489W        W59413  25.711  26.248  52.444
67490W        W59414  44.178  19.243  52.899
67491W        W59415  13.259  41.699  50.156
67492W        W59416  46.695  32.209  51.974
67493W        W59417  17.738  43.211  51.495
67494W        W59418  12.756  28.730  53.341
67495W        W59419  20.229  41.193  50.124
67496W        W59420  22.250  21.762  53.332
67497W        W59421  12.278  18.762  49.710
67498W        W59422   8.745   8.753  52.442
67499W        W59423  12.743  42.719  53.793
67500W        W59424  48.211   8.245  52.904
67501W        W59425  42.216   3.760  51.954
67502W        W59426  27.250   4.280  53.796
67503W        W59427  34.236   2.777  51.490
67504W        W59428  23.745   9.749  53.799
67505W        W59429  39.706  39.723  53.353
67506W        W59430  20.236  30.205  53.806
67507W        W59431  33.236   8.260  50.137
67508W        W59432  44.709  39.214  50.151
67509W        W59433  44.188  23.736  50.122
67510W        W59434  28.204  47.721  53.330
67511W        W59435  26.714  45.724  51.964
67512W        W59436  24.257  15.248  51.529
67513W        W59437  32.227   8.246  51.069
67514W        W59438  31.199  46.682  49.687
67515W        W59439   3.269  22.257  51.980
67516W        W59440  38.704  41.231  52.897
67517W        W59441  37.224  11.776  51.963
67518W        W59442  39.705   7.246  51.069
67519W        W59443  41.729  27.706  49.681
67520W        W59444   1.253  28.212  51.506
67521W        W59445  36.236  10.248  51.044
67522W        W59446  18.244  37.220  50.140
67523W        W59447  45.716   6.251  49.686
67524W        W59448  26.748  46.198  50.164
67525W        W59449  47.219   6.742  52.864
67526W        W59450  40.696  41.187  49.706
67527W        W59451  40.223   7.269  50.616
67528W        W59452  27.722  25.253  52.895
67529W        W59453   1.291  40.693  51.979
67530W        W59454   4.261  16.744  51.533
67531W        W59455  38.703  22.216  50.592
67532W        W59456   9.258   1.772  51.526
67533W        W59457  10.759  25.226  51.527
67534W        W59458   3.768   7.787  51.066
67535W        W59459  38.725  44.711  50.607
67536W        W59460   0.264  39.709  50.597
67537W        W59461  13.749  47.190  53.792
67538W        W59462   4.780  29.746  52.886
67539W        W59463  46.215  26.719  50.164
67540W        W59464  16.254   7.279  49.703
67541W        W59465   9.280   4.783  50.157
67542W        W59466  22.738  38.209  52.422
67543W        W59467  41.212  10.234  50.605
67544W        W59468  20.245   4.780  50.620
67545W        W59469  37.221  39.205  50.137
67546W        W59470  39.186  43.722  53.814
67547W        W59471   1.753   6.756  53.785
67548W        W59472  43.198  22.717  53.325
67549W        W59473  12.760  30.712  51.512
67550W        W59474  30.722  20.748  51.072
67551W        W59475  30.244  22.746  50.621
67552W        W59476  40.201  11.266  51.956
67553W        W59477  18.263  25.246  51.491
67554W        W59478  31.700  47.709  51.522
67555W        W59479  20.256  41.710  52.408
67556W        W59480   0.291  21.223  50.615
67557W        W59481  44.203   1.786  52.423
67558W        W59482  35.193  13.758  49.679
67559W        W59483  17.250   3.766  51.960
67560W        W59484   2.296   3.779  51.057
67561W        W59485  27.745  32.226  51.038
67562W        W59486  24.239  12.769  53.359
67563W        W59487  37.737  27.749  50.617
67564W        W59488  35.237  26.711  51.522
67565W        W59489  10.235  44.203  50.581
67566W        W59490  17.722  39.693  51.949
67567W        W59491  20.718  21.719  51.984
67568W        W59492  27.709  46.194  51.521
67569W        W59493  44.183  15.740  53.359
67570W        W59494  17.252   2.789  49.693
67571W        W59495  47.682   7.273  50.153
67572W        W59496   0.763   2.273  51.978
67573W        W59497  15.757  33.224  51.957
67574W        W59498  10.245   2.747  49.691
67575W        W59499  35.206  34.737  51.495
67576W        W59500  29.205  12.264  50.591
67577W        W59501  45.190   9.758  51.509
67578W        W59502  41.685  33.227  53.816
67579W        W59503  24.715  36.724  52.434
67580W        W59504  13.274  15.770  53.325
67581W        W59505  11.265  11.739  51.500
67582W        W59506  20.759  14.736  51.985
67583W        W59507  42.713   3.252  51.066
67584W        W59508  37.232  19.219  53.806
67585W        W59509   8.784  23.260  49.677
67586W        W59510  46.201  29.213  52.418
67587W        W59511  42.714  13.248  51.957
67588W        W59512  23.744  31.246  50.620
67589W        W59513  19.750   9.766  51.961
67590W        W59514  17.726  24.212  51.965
67591W        W59515  36.690  43.720  51.968
67592W        W59516   3.256   6.290  52.408
67593W        W59517  13.730  19.751  50.147
67594W        W59518  29.744  28.205  50.608
67595W        W59519  34.216  34.204  53.320
67596W        W59520  41.720  23.720  52.413
67597W        W59521  24.739   6.754  53.791
67598W        W59522   1.774  28.235  51.521
67599W        W59523   2.250  30.718  53.787
67600W        W59524  13.232  19.255  49.688
67601W        W59525  42.703  12.749  51.967
67602W        W59526   4.273   7.753  52.865
67603W        W59527   7.773  21.264  51.042
67604W        W59528  35.195  43.207  49.697
67605W        W59529   7.738  17.744  49.669
67606W        W59530  29.208  37.213  51.526
67607W        W59531  32.244  47.185  50.139
67608W        W59532  29.720  11.754  53.356
67609W        W59533  35.718  42.725  52.433
67610W        W59534  12.256  21.718  53.789
67611W        W59535  30.739  25.209  49.691
67612W        W59536  24.715  40.207  52.902
67613W        W59537   9.253  19.737  49.706
67614W        W59538  35.207  42.706  53.778
67615W        W59539  32.222  13.271  49.671
67616W        W59540  30.722  42.192  52.892
67617W        W59541  44.221   1.280  51.505
67618W        W59542  40.684  23.259  52.448
67619W        W59543  34.727  24.226  50.122
67620W        W59544  11.753   4.275  50.150
67621W        W59545  47.206  24.225  53.799
67622W        W59546  31.247  21.730  49.671
67623W        W59547  16.746  30.250  51.947
67624W        W59548   9.257  41.199  49.700
67625W        W59549  31.712  24.234  50.592
67626W        W59550  27.244  42.682  53.814
67627W        W59551  29.202   6.264  49.703
67628W        W59552  31.745  45.187  52.878
67629W        W59553  24.712  40.199  51.511
67630W        W59554  30.240   9.735  51.067
67631W        W59555  47.706  29.727  50.161
67632W        W59556  24.236   8.242  53.330
67633W        W59557  25.243  31.728  49.666
67634W        W59558  12.775  39.208  49.668
67635W        W59559  28.233  22.735  52.406
67636W        W59560  28.215  29.215  52.892
67637W        W59561  34.224   6.261  50.612
67638W        W59562  41.214  38.224  52.882
67639W        W59563  30.701   2.269  51.962
67640W        W59564   6.761  18.748  51.074
67641W        W59565  45.188  42.724  53.803
67642W        W59566   4.759   1.750  53.360
67643W        W59567  21.235  18.733  51.505
67644W        W59568  34.221   1.267  51.512
67645W        W59569  34.727  43.722  50.164
67646W        W59570   7.281  46.220  50.614
67647W        W59571  18.256  36.719  53.352
67648W        W59572   6.753   6.248  52.903
67649W        W59573  26.714  43.220  51.036
67650W        W59574  18.730  43.226  50.590
67651W        W59575   1.770  45.715  50.131
67652W        W59576  13.274  11.281  51.059
67653W        W59577   4.756  10.263  53.812
67654W        W59578  17.766   4.752  52.409
67655W        W59579  42.226  17.735  50.613
67656W        W59580   0.252  46.208  52.884
67657W        W59581  18.230  11.748  51.494
67658W        W59582  32.713  15.240  52.865
67659W        W59583   7.760  12.265  50.148
67660W        W59584  36.233  24.752  52.412
67661W        W59585  43.691   9.268  51.509
67662W        W59586  25.244  44.192  51.962
67663W        W59587  26.719  27.720  51.519
67664W        W59588  14.758  38.735  50.123
67665W        W59589   9.272  18.252  52.893
67666W        W59590  17.245  29.728  52.438
67667W        W59591  46.213   6.762  50.123
67668W        W59592  43.187   0.798  50.577
67669W        W59593  35.714  32.746  51.529
67670W        W59594  18.739  20.748  51.490
67671W        W59595  37.700   8.244  51.952
67672W        W59596  34.697  17.745  51.069
67673W        W59597   3.748  16.248  51.529
67674W        W59598  14.745   0.791  53.800
67675W        W59599  41.194  30.213  51.977
67676W        W59600  21.255   9.759  52.903
67677W        W59601   7.757  43.216  52.428
67678W        W59602   7.784  38.203  52.872
67679W        W59603  44.195  33.199  53.340
67680W        W59604   5.784  31.230  52.423
67681W        W59605   9.778  28.715  50.597
67682W        W59606  46.222   4.250  50.606
67683W        W59607  40.203   8.267  49.702
67684W        W59608  30.727  33.219  49.666
67685W        W59609  33.236   0.274  53.358
67686W        W59610  39.229  38.225  53.341
67687W        W59611  43.705  41.197  50.622
67688W        W59612  41.217  13.246  50.582
67689W        W59613  42.221  12.272  52.433
67690W        W59614   7.262  20.765  50.158
67691W        W59615  37.192   1.254  52.439
67692W        W59616  38.718  16.747  53.323
67693W        W59617  27.753  13.275  51.985
67694W        W59618  34.699  24.754  50.621
67695W        W59619  44.225  24.719  50.148
67696W        W59620  47.685  18.751  52.866
67697W        W59621  12.255  37.726  51.490
67698W        W59622  44.704   8.749  51.498
67699W        W59623  23.233   3.284  51.046
67700W        W59624  29.230  21.232  51.512
67701W        W59625   1.781  41.718  53.802
67702W        W59626  47.188  17.759  51.981
67703W        W59627  30.202   5.741  50.607
67704W        W59628   9.740  47.683  50.156
67705W        W59629   3.772  30.747  50.165
67706W        W59630   0.756  42.719  51.535
67707W        W59631  32.241  36.231  52.444
67708W        W59632   2.766  30.742  49.670
67709W        W59633  36.695   5.256  51.968
67710W        W59634  12.776  14.269  52.448
67711W        W59635   1.262  31.701  53.798
67712W        W59636  12.244  24.719  53.357
67713W        W59637  36.210  24.230  50.609
67714W        W59638  48.201  19.735  53.795
67715W        W59639  18.226  33.223  52.405
67716W        W59640  41.694  13.741  51.528
67717W        W59641   8.264  20.759  52.900
67718W        W59642  23.259  11.253  52.413
67719W        W59643  34.240  21.260  49.682
67720W        W59644  15.751  22.735  53.358
67721W        W59645  34.195   0.755  50.612
67722W        W59646  10.233   7.786  51.519
67723W        W59647  37.712  43.702  49.667
67724W        W59648  25.718  40.728  52.899
67725W        W59649  38.706  14.745  51.980
67726W        W59650  31.719  12.249  52.875
67727W        W59651  14.245  14.767  51.523
67728W        W59652  20.753  22.213  53.323
67729W        W59653  34.696  12.250  51.986
67730W        W59654  41.219  24.755  53.359
67731W        W59655  12.744  37.725  52.876
67732W        W59656  41.214  15.734  51.508
67733W        W59657   2.262  27.713  51.511
67734W        W59658  20.217  32.701  52.446
67735W        W59659  32.742  34.693  51.948
67736W        W59660  32.234  24.749  51.035
67737W        W59661   1.775  12.751  53.789
67738W        W59662   2.287  31.218  51.978
67739W        W59663  38.220  19.250  49.703
67740W        W59664  44.221  35.694  51.516
67741W        W59665  34.701  16.729  51.949
67742W        W59666   9.236  10.265  50.144
67743W        W59667  27.208  15.760  51.048
67744W        W59668  24.238  42.693  51.980
67745W        W59669   9.272  23.248  52.428
67746W        W59670   4.274  38.705  50.589
67747W        W59671  31.746  45.190  52.440
67748W        W59672  34.224  36.722  49.683
67749W        W59673  35.707  33.241  52.413
67750W        W59674  22.246  11.255  49.701
67751W        W59675  46.689  13.741  51.070
67752W        W59676   0.788   9.269  51.499
67753W        W59677  34.223  29.726  52.884
67754W        W59678  22.227   9.770  51.073
67755W        W59679  12.276  48.195  51.532
67756W        W59680  42.700  43.196  50.163
67757W        W59681  10.277  27.729  50.127
67758W        W59682   7.755  21.715  53.351
67759W        W59683  24.712  43.682  52.440
67760W        W59684  15.764  35.732  53.333
67761W        W59685  36.221  12.750  50.149
67762W        W59686  31.744   4.742  53.804
67763W        W59687  33.722  17.742  51.042
67764W        W59688  38.727  30.720  53.802
67765W        W59689  29.743   8.264  51.066
67766W        W59690  12.755  30.246  53.781
67767W        W59691  28.239  45.678  51.059
67768W        W59692  43.687  10.773  53.353
67769W        W59693  18.720  48.183  51.527
67770W        W59694  29.710  41.686  51.956
67771W        W59695  19.246  13.735  50.148
67772W        W59696  26.210   5.287  50.141
67773W        W59697  44.708  29.714  52.432
67774W        W59698  41.710  22.260  50.613
67775W        W59699   8.270  19.260  53.815
67776W        W59700  25.257  26.725  51.975
67777W        W59701  29.228  41.186  51.491
67778W        W59702  33.723  34.221  51.056
67779W        W59703  36.708  27.223  53.320
67780W        W59704  46.714  21.235  53.773
67781W        W59705  40.717  13.250  52.863
67782W        W59706  29.708  19.722  51.520
67783W        W59707  43.725  17.725  53.812
67784W        W59708  39.229  33.232  50.143
67785W        W59709  47.676  31.734  52.424
67786W        W59710   9.280   8.265  52.875
67787W        W59711  12.778  27.232  50.151
67788W        W59712  13.766  20.759  53.354
67789W        W59713   9.273   1.279  49.671
67790W        W59714  37.231  17.755  52.894
67791W        W59715  27.218  10.244  53.799
67792W        W59716   0.281  25.251  53.345
67793W        W59717  19.756   7.242  51.952
67794W        W59718  38.188   1.792  50.609
67795W        W59719  34.231  23.721  53.327
67796W        W59720  33.238  44.680  50.162
67797W        W59721  34.214  45.191  52.898
67798W        W59722  37.230  47.679  51.494
67799W        W59723   6.242  14.736  50.133
67800W        W59724  43.204   5.272  50.602
67801W        W59725  18.750  12.737  53.343
67802W        W59726  11.280  28.227  53.359
67803W        W59727  35.702  29.207  51.511
67804W        W59728   7.749  16.239  53.804
67805W        W59729  41.213  47.696  51.050
67806W        W59730  30.211  10.238  52.899
67807W        W59731  35.235   4.280  49.679
67808W        W59732  12.737  24.227  50.135
67809W        W59733  14.229  31.225  50.130
67810W        W59734   2.272  31.727  49.698
67811W        W59735  10.754  13.733  51.517
67812W        W59736  11.277  42.223  49.665
67813W        W59737  33.204  22.725  51.534
67814W        W59738   6.269  33.741  51.050
67815W        W59739  40.191  34.723  50.600
67816W        W59740  20.240  30.215  51.972
67817W        W59741  10.239  12.743  51.990
67818W        W59742   4.760  46.687  49.699
67819W        W59743  28.731  46.174  51.956
67820W        W59744  24.755  18.744  53.803
67821W        W59745   6.775  37.735  50.154
67822W        W59746  12.261  21.755  52.424
67823W        W59747  36.713   2.783  52.439
67824W        W59748  22.728  18.757  50.589
67825W        W59749  30.730   9.742  50.583
67826W        W59750  21.220   3.764  51.060
67827W        W59751  36.722  20.739  52.446
67828W        W59752  13.263  42.209  50.163
67829W        W59753  45.182  27.228  49.709
67830W        W59754  29.736  18.234  52.407
67831W        W59755  40.227  47.702  51.507
67832W        W59756   4.282  45.687  53.327
67833W        W59757   4.265  25.724  49.696
67834W        W59758  28.222   3.774  51.969
67835W        W59759  14.760   2.749  51.522
67836W        W59760  40.694  36.227  51.072
67837W        W59761  42.209  39.221  49.700
67838W        W59762  29.702  40.216  52.406
67839W        W59763  47.213   3.290  53.355
67840W        W59764  17.721  25.226  50.150
67841W        W59765  11.767  13.748  51.980
67842W        W59766  25.736  23.249  53.801
67843W        W59767   7.770   9.244  51.051
67844W        W59768  19.251  12.760  49.678
67845W        W59769  34.710  46.723  53.337
67846W        W59770   7.276  43.719  51.961
67847W        W59771  32.236  16.742  50.135
67848W        W59772  35.202   0.282  50.144
67849W        W59773  32.716   0.263  51.983
67850W        W59774  44.205  20.252  49.709
67851W        W59775  35.205  27.229  50.149
67852W        W59776  31.234  40.194  53.332
67853W        W59777   6.259  23.223  51.062
67854W        W59778   8.273   6.254  49.666
67855W        W59779  36.198   3.765  53.331
67856W        W59780  31.730  44.708  51.069
67857W        W59781  18.743  43.708  50.155
67858W        W59782   2.770  19.242  52.410
67859W        W59783  24.244   0.764  51.971
67860W        W59784   0.267  25.738  53.776
67861W        W59785  24.240  45.207  52.409
67862W        W59786  17.724  17.744  50.147
67863W        W59787  25.725  37.234  50.150
67864W        W59788  18.221   0.749  49.700
67865W        W59789  13.773  16.230  51.064
67866W        W59790  48.215  46.174  51.497
67867W        W59791  26.216   9.255  51.971
67868W        W59792  37.698  30.249  53.799
67869W        W59793  39.216  38.193  49.678
67870W        W59794  20.217  14.256  50.164
67871W        W59795  20.262   4.290  53.348
67872W        W59796   0.255   0.778  49.682
67873W        W59797  36.730  36.722  52.440
67874W        W59798  16.765   7.247  53.791
67875W        W59799  30.225   5.278  52.421
67876W        W59800  34.227  43.682  51.065
67877W        W59801  47.186  33.212  49.692
67878W        W59802  15.739  22.756  50.604
67879W        W59803  31.738  29.205  50.157
67880W        W59804   1.765  30.736  52.883
67881W        W59805   0.269  11.266  49.681
67882W        W59806  28.206  35.695  52.429
67883W        W59807  32.713  23.252  51.958
67884W        W59808  17.248  21.735  51.042
67885W        W59809  38.234   1.295  51.527
67886W        W59810  16.268   3.780  53.785
67887W        W59811  46.178  26.212  51.498
67888W        W59812  12.258  31.235  51.518
67889W        W59813   1.283   3.781  51.062
67890W        W59814  14.260  11.775  53.792
67891W        W59815  30.703  24.747  50.136
67892W        W59816  34.212  43.726  50.145
67893W        W59817  33.701   3.793  52.903
67894W        W59818  19.234  34.698  51.963
67895W        W59819  19.747  41.726  53.777
67896W        W59820  22.221  30.216  49.701
67897W        W59821  43.707  35.737  51.988
67898W        W59822  18.255   9.243  51.986
67899W        W59823  35.227  32.202  50.135
67900W        W59824  37.198  23.237  51.986
67901W        W59825  37.729  31.718  52.433
67902W        W59826  29.209  26.725  50.601
67903W        W59827   2.283   9.275  53.788
67904W        W59828   2.265  19.233  50.156
67905W        W59829   7.772  15.763  50.149
67906W        W59830  39.212  24.213  50.155
67907W        W59831   6.754  34.233  51.070
67908W        W59832  45.688  19.746  51.986
67909W        W59833  12.275  42.714  52.900
67910W        W59834  13.755  24.727  50.617
67911W        W59835  43.226  31.245  51.071
67912W        W59836  31.745  21.263  52.412
67913W        W59837  15.739  23.242  50.588
67914W        W59838   7.752  10.746  51.501
67915W        W59839  25.241  34.228  50.159
67916W        W59840  32.224  14.757  51.970
67917W        W59841  39.734  16.770  52.880
67918W        W59842  13.257   0.276  50.617
67919W        W59843  19.246   8.745  53.341
67920W        W59844  26.213  12.734  51.038
67921W        W59845  15.231  30.710  50.134
67922W        W59846  29.212  45.223  49.701
67923W        W59847   1.265  43.227  51.043
67924W        W59848  30.716   7.769  50.150
67925W        W59849  36.724  31.203  52.412
67926W        W59850   7.249  37.191  51.511
67927W        W59851  12.745  33.718  53.348
67928W        W59852  13.272   6.777  51.503
67929W        W59853   9.781   5.741  52.905
67930W        W59854   5.266  46.684  51.506
67931W        W59855   1.261   9.737  50.133
67932W        W59856  19.255  14.228  50.127
67933W        W59857  23.759  39.702  50.161
67934W        W59858  10.256   3.782  53.359
67935W        W59859  11.773  23.723  53.347
67936W        W59860  29.746  35.731  51.490
67937W        W59861   6.267  18.224  53.813
67938W        W59862  39.687  16.765  51.068
67939W        W59863  20.235  36.714  51.054
67940W        W59864  22.248  13.762  53.815
67941W        W59865  20.237  12.250  50.586
67942W        W59866   8.266   8.775  51.495
67943W        W59867  31.219   6.759  53.354
67944W        W59868  30.243   7.255  51.055
67945W        W59869  37.712  31.215  53.814
67946W        W59870  38.209   7.777  52.438
67947W        W59871   7.268  23.729  49.696
67948W        W59872   1.250  10.746  52.439
67949W        W59873  26.213  25.734  50.587
67950W        W59874   9.243  27.228  50.593
67951W        W59875  26.234  46.703  51.533
67952W        W59876  42.200  24.735  50.579
67953W        W59877   8.751   7.249  52.445
67954W        W59878  21.256  32.735  51.069
67955W        W59879   7.764  41.198  49.676
67956W        W59880  17.766   0.798  49.708
67957W        W59881  28.209  42.680  53.790
67958W        W59882  17.252  23.735  53.340
67959W        W59883  32.245  17.238  50.131
67960W        W59884  41.215  27.225  53.783
67961W        W59885  12.762  12.770  52.900
67962W        W59886  42.200   2.260  52.429
67963W        W59887  38.715  34.698  52.414
67964W        W59888  25.729  18.741  50.156
67965W        W59889   4.246  27.746  50.154
67966W        W59890   4.254  22.227  49.679
67967W        W59891  16.754   4.792  52.892
67968W        W59892   2.759  36.731  53.351
67969W        W59893  40.186  16.226  52.412
67970W        W59894  10.770  28.728  52.904
67971W        W59895  39.220   6.760  50.163
67972W        W59896  24.236  30.714  52.878
67973W        W59897  39.188  21.744  51.512
67974W        W59898   1.782   0.794  51.501
67975W        W59899  20.738   9.252  51.991
67976W        W59900  42.697   0.274  50.583
67977W        W59901  33.738  35.739  53.318
67978W        W59902  37.220  18.226  51.073
67979W        W59903   1.284  25.757  50.584
67980W        W59904  25.213  22.742  51.530
67981W        W59905  47.210   6.762  52.440
67982W        W59906  41.722   4.770  51.532
67983W        W59907  41.221  31.214  49.675
67984W        W59908  36.700  13.770  51.050
67985W        W59909  38.704  25.228  52.902
67986W        W59910  48.184  43.725  53.783
67987W        W59911  11.277  33.743  52.448
67988W        W59912  32.704  45.683  53.812
67989W        W59913  47.214  39.714  52.441
67990W        W59914  30.711  38.706  49.687
67991W        W59915  25.224  48.218  50.141
67992W        W59916   8.261  10.746  51.534
67993W        W59917  13.233  10.767  51.951
67994W        W59918  46.211  36.713  51.973
67995W        W59919   8.742  21.250  53.795
67996W        W59920  39.228  41.727  52.885
67997W        W59921  47.201  24.718  53.794
67998W        W59922  46.221  32.207  50.128
67999W        W59923  48.182  34.710  53.801
68000W        W59924  29.220  18.225  50.613
68001W        W59925  32.246  25.232  49.701
68002W        W59926  40.208  40.704  50.584
68003W        W59927  16.739  39.695  52.443
68004W        W59928  18.736  10.765  50.611
68005W        W59929   8.270   0.260  53.354
68006W        W59930  24.720  14.269  50.144
68007W        W59931  15.249   8.753  50.135
68008W        W59932   5.261  11.737  49.677
68009W        W59933  42.706   2.782  50.587
68010W        W59934  21.220  16.744  52.881
68011W        W59935  31.239   0.793  52.418
68012W        W59936   2.283  14.731  49.685
68013W        W59937  29.703  38.215  49.701
68014W        W59938  25.215  25.218  52.410
68015W        W59939   4.778  18.226  51.522
68016W        W59940  25.237  12.743  53.807
68017W        W59941   2.765  30.707  51.034
68018W        W59942  24.716  16.249  50.148
68019W        W59943  31.728  22.244  50.132
68020W        W59944  25.257  10.239  52.871
68021W        W59945  19.229  34.224  53.351
68022W        W59946  27.733  29.239  50.139
68023W        W59947  14.276  42.705  53.345
68024W        W59948   0.273   8.285  51.077
68025W        W59949  41.711   8.758  53.790
68026W        W59950  27.219   7.273  50.594
68027W        W59951   2.253   1.250  50.153
68028W        W59952  16.243  22.253  51.066
68029W        W59953   7.259  36.692  49.704
68030W        W59954   4.249   8.260  51.513
68031W        W59955  19.722  24.230  50.611
68032W        W59956  23.751  28.236  52.418
68033W        W59957  13.259  46.689  53.332
68034W        W59958  16.224  43.192  51.057
68035W        W59959  38.726  28.707  51.070
68036W        W59960  23.712  20.228  51.062
68037W        W59961   2.295  46.689  52.425
68038W        W59962  35.235  38.199  52.896
68039W        W59963  39.734  10.739  51.062
68040W        W59964  42.190  31.735  52.446
68041W        W59965   4.770  26.724  51.062
68042W        W59966  42.215  13.745  49.668
68043W        W59967  11.271  20.728  51.974
68044W        W59968  10.249   2.277  49.677
68045W        W59969  27.234  13.749  49.670
68046W        W59970  17.228  41.223  51.511
68047W        W59971  11.766  38.707  52.872
68048W        W59972  35.727  47.699  52.420
68049W        W59973  46.704  38.189  53.348
68050W        W59974  28.748  12.740  52.429
68051W        W59975  38.202  11.238  49.678
68052W        W59976   6.264  33.196  53.348
68053W        W59977  21.735  20.765  53.776
68054W        W59978  27.715   9.744  53.324
68055W        W59979  25.215  18.267  51.963
68056W        W59980  31.742   0.269  51.523
68057W        W59981  23.756  12.745  49.689
68058W        W59982  23.752  48.191  50.162
68059W        W59983  34.700  22.728  53.359
68060W        W59984  22.259  24.746  53.790
68061W        W59985  43.214  24.241  50.153
68062W        W59986  10.742  42.692  52.873
68063W        W59987   1.785  18.732  53.351
68064W        W59988  19.736  22.255  50.153
68065W        W59989  44.190  32.715  53.331
68066W        W59990  20.726  43.703  52.878
68067W        W59991   3.248  31.209  51.491
68068W        W59992   1.289  19.219  53.778
68069W        W59993  46.184  46.193  51.522
68070W        W59994  17.247  34.707  51.047
68071W        W59995  32.233  44.203  52.869
68072W        W59996  27.744  23.238  50.163
68073W        W59997  39.691  34.243  51.523
68074W        W59998  36.739  30.249  49.698
68075W        W59999  45.190   4.779  50.604
68076W        W60000  32.712  37.231  50.617
68077W        W60001  37.693  18.225  50.577
68078W        W60002  35.204   4.258  52.446
68079W        W60003  18.765  18.248  53.809
68080W        W60004   7.267   0.792  53.774
68081W        W60005  34.721  22.757  50.622
68082W        W60006  12.255  35.694  51.056
68083W        W60007  30.717  32.214  49.677
68084W        W60008  24.718  21.227  52.904
68085W        W60009  18.241  23.735  51.961
68086W        W60010   2.756  37.706  50.145
68087W        W60011   4.789  14.753  50.602
68088W        W60012  25.749  44.678  50.614
68089W        W60013  15.266   9.737  52.431
68090W        W60014  25.234   0.284  51.972
68091W        W60015  42.721  35.705  51.070
68092W        W60016  14.749   3.281  51.991
68093W        W60017  47.221  17.267  50.158
68094W        W60018  22.725  47.709  50.617
68095W        W60019  20.724  15.272  51.970
68096W        W60020  43.205  18.267  51.528
68097W        W60021  21.238  35.735  50.614
68098W        W60022  23.250  36.194  50.143
68099W        W60023   5.284   7.255  51.506
68100W        W60024  25.724  43.688  49.706
68101W        W60025   2.755  19.721  53.797
68102W        W60026  32.204  11.774  52.862
68103W        W60027  37.196   2.772  53.323
68104W        W60028  23.250  20.764  52.898
68105W        W60029  35.232  46.690  50.583
68106W        W60030  34.240  32.740  52.900
68107W        W60031  13.254   0.291  52.873
68108W        W60032   6.766  19.223  52.414
68109W        W60033  17.239  39.212  52.863
68110W        W60034  39.723   3.762  50.609
68111W        W60035  11.267  32.737  52.440
68112W        W60036  13.750  41.186  50.602
68113W        W60037  22.249   6.779  50.155
68114W        W60038  14.763  47.212  53.358
68115W        W60039  30.714  39.200  49.686
68116W        W60040  43.695  12.260  49.708
68117W        W60041   3.249  47.218  51.511
68118W        W60042  12.731  30.733  53.783
68119W        W60043  41.210  21.220  51.533
68120W        W60044  29.725  13.238  49.669
68121W        W60045   9.762  33.721  53.337
68122W        W60046  20.751  41.725  52.867
68123W        W60047  36.196  22.738  51.519
68124W        W60048  14.254  31.237  50.621
68125W        W60049   8.273   5.759  49.710
68126W        W60050  37.735  36.220  50.151
68127W        W60051   3.746  29.728  51.527
68128W        W60052   6.749   6.762  49.690
68129W        W60053  22.738   9.763  51.038
68130W        W60054  15.755   6.772  53.353
68131W        W60055  23.739   0.253  50.581
68132W        W60056  22.736  32.720  51.533
68133W        W60057  12.260  35.213  50.139
68134W        W60058  24.742  42.704  53.788
68135W        W60059  26.230  17.746  52.894
68136W        W60060  46.188  27.248  50.578
68137W        W60061  29.247  10.781  52.867
68138W        W60062  42.715  28.723  51.038
68139W        W60063  20.738  29.217  50.588
68140W        W60064  23.746   4.757  53.343
68141W        W60065  22.244  42.705  53.776
68142W        W60066  30.208  48.218  53.793
68143W        W60067  38.228  44.682  50.163
68144W        W60068  11.247  10.272  52.881
68145W        W60069  24.730  31.208  52.885
68146W        W60070  45.203   8.246  50.130
68147W        W60071  10.769  46.207  53.350
68148W        W60072  27.708   0.297  53.793
68149W        W60073  33.237  27.748  50.130
68150W        W60074  46.695  18.728  51.533
68151W        W60075   8.274   7.256  53.339
68152W        W60076  45.210  10.742  50.123
68153W        W60077  39.688  17.245  51.535
68154W        W60078  44.196  30.202  51.965
68155W        W60079  16.238  34.698  50.152
68156W        W60080  25.209  36.714  49.666
68157W        W60081  18.722  11.248  51.074
68158W        W60082  29.750  26.209  51.508
68159W        W60083  33.707   7.771  50.160
68160W        W60084  16.232  10.759  51.520
68161W        W60085  19.247   6.774  51.532
68162W        W60086  33.723  23.735  51.989
68163W        W60087   3.775   7.256  50.126
68164W        W60088   0.758   3.771  51.491
68165W        W60089  10.761  45.203  51.058
68166W        W60090  44.185  25.715  52.410
68167W        W60091  33.245  19.748  50.603
68168W        W60092  20.754  23.711  52.439
68169W        W60093  25.225   9.765  51.957
68170W        W60094  43.678  36.729  50.149
68171W        W60095  45.186  43.211  50.611
68172W        W60096  32.217  10.244  52.417
68173W        W60097  39.202  20.718  50.160
68174W        W60098   3.294  10.757  53.808
68175W        W60099  42.207  24.743  49.696
68176W        W60100  38.726  44.182  53.793
68177W        W60101  26.241  12.749  53.353
68178W        W60102  24.742   1.276  52.900
68179W        W60103  18.261  47.219  49.679
68180W        W60104  43.183   5.263  51.968
68181W        W60105   0.780  42.221  50.607
68182W        W60106  23.234  38.226  52.870
68183W        W60107  43.684  46.709  52.435
68184W        W60108  33.744   5.286  50.152
68185W        W60109  47.214   6.280  53.773
68186W        W60110  45.203  17.265  49.673
68187W        W60111   8.766  33.708  51.036
68188W        W60112  44.719  27.718  53.773
68189W        W60113  15.270  28.226  53.783
68190W        W60114  26.722  36.192  49.702
68191W        W60115  23.247  30.719  51.040
68192W        W60116  16.750  47.196  53.791
68193W        W60117   1.292  48.201  49.705
68194W        W60118  33.737  18.238  50.134
68195W        W60119  13.761  18.237  50.597
68196W        W60120  21.227  40.719  52.901
68197W        W60121   2.276  37.719  52.426
68198W        W60122  15.763  21.256  52.881
68199W        W60123  12.743   1.280  51.074
68200W        W60124  32.736  25.713  52.440
68201W        W60125  41.215  22.215  50.130
68202W        W60126   2.260  47.201  51.977
68203W        W60127  45.721  31.737  53.784
68204W        W60128  13.232  12.765  53.340
68205W        W60129   4.260  29.742  51.045
68206W        W60130  28.245  46.689  51.983
68207W        W60131  10.281  36.206  51.982
68208W        W60132  30.726   5.766  51.068
68209W        W60133   1.785  36.722  51.063
68210W        W60134  45.208  38.218  53.322
68211W        W60135   0.754  25.258  52.448
68212W        W60136   2.278   6.278  51.516
68213W        W60137   9.254   5.272  50.614
68214W        W60138   3.756  19.237  52.431
68215W        W60139  34.238  11.276  51.949
68216W        W60140  46.680  45.187  50.154
68217W        W60141  14.253  30.723  51.492
68218W        W60142  37.713  15.248  52.415
68219W        W60143  41.199  11.270  51.046
68220W        W60144   4.274  39.707  52.433
68221W        W60145  17.253  28.223  53.335
68222W        W60146  16.771  25.754  53.814
68223W        W60147  12.249  39.712  50.609
68224W        W60148  44.722  25.229  52.440
68225W        W60149  34.718  37.232  49.681
68226W        W60150  17.259  11.261  52.412
68227W        W60151  33.732  33.216  52.884
68228W        W60152  33.225   8.238  51.498
68229W        W60153  33.727  23.214  53.800
68230W        W60154   4.761  35.201  50.595
68231W        W60155   9.780   0.259  50.165
68232W        W60156  38.720   2.753  52.437
68233W        W60157   2.765  19.242  53.775
68234W        W60158   4.248  20.221  50.585
68235W        W60159  17.245   6.289  51.045
68236W        W60160  10.761  45.706  53.340
68237W        W60161  20.217  43.225  50.152
68238W        W60162  26.226  38.227  49.695
68239W        W60163  10.776  28.210  52.415
68240W        W60164   0.261   9.244  51.950
68241W        W60165  14.730  43.196  51.512
68242W        W60166  33.238   8.763  51.965
68243W        W60167   2.769   6.763  50.610
68244W        W60168   4.746  17.232  53.782
68245W        W60169  30.205   8.757  52.404
68246W        W60170  42.722  38.212  52.441
68247W        W60171  31.706  30.249  49.680
68248W        W60172   7.273  19.735  52.884
68249W        W60173  22.714  34.240  51.968
68250W        W60174  45.683  10.768  53.796
68251W        W60175  10.239  33.208  50.600
68252W        W60176  17.250  15.266  51.962
68253W        W60177  16.248   3.252  49.674
68254W        W60178  39.700  13.729  52.414
68255W        W60179   0.272  23.254  51.520
68256W        W60180  28.226  40.732  53.809
68257W        W60181  30.232  33.244  50.132
68258W        W60182  33.702   1.772  53.794
68259W        W60183  46.206  37.189  51.074
68260W        W60184  18.720  33.207  52.893
68261W        W60185  40.223  45.695  50.127
68262W        W60186  38.702  11.236  50.614
68263W        W60187  10.779  33.237  52.441
68264W        W60188  47.674  11.244  49.708
68265W        W60189  24.254  12.271  50.150
68266W        W60190   6.768  20.228  52.876
68267W        W60191  32.242  25.214  50.127
68268W        W60192  47.705  13.232  49.695
68269W        W60193  44.705   5.280  50.595
68270W        W60194   5.754  46.220  51.956
68271W        W60195  47.672   6.777  50.130
68272W        W60196  13.756  32.718  51.041
68273W        W60197   4.248   7.281  49.700
68274W        W60198   0.287  32.710  49.668
68275W        W60199  29.734   2.762  52.888
68276W        W60200  43.226  35.224  53.814
68277W        W60201  36.235  17.755  51.961
68278W        W60202  45.179  40.697  53.803
68279W        W60203  28.232  39.203  51.535
68280W        W60204  29.240   0.769  51.067
68281W        W60205  10.736  19.762  53.783
68282W        W60206  20.238  45.203  52.421
68283W        W60207   1.255  30.210  49.679
68284W        W60208  13.746   2.256  53.322
68285W        W60209  24.216   5.260  50.153
68286W        W60210  29.238  17.257  51.054
68287W        W60211  26.217  22.715  52.864
68288W        W60212  16.756  43.202  50.160
68289W        W60213  27.248  13.273  50.163
68290W        W60214  44.220   5.250  51.954
68291W        W60215   2.265  48.184  53.772
68292W        W60216  39.718   0.767  53.801
68293W        W60217  27.733   3.258  53.783
68294W        W60218  32.206  44.681  53.783
68295W        W60219  14.271  12.254  51.035
68296W        W60220  47.684   1.764  53.811
68297W        W60221  42.204  33.229  53.358
68298W        W60222   3.753   5.773  51.535
68299W        W60223   6.283  39.185  52.423
68300W        W60224   9.747  27.722  53.788
68301W        W60225   9.235  40.207  51.506
68302W        W60226  26.209  15.236  51.980
68303W        W60227  23.226  37.737  49.671
68304W        W60228  20.266  25.242  49.667
68305W        W60229  45.682  36.732  51.978
68306W        W60230  29.729  18.734  50.151
68307W        W60231  32.718  18.768  53.790
68308W        W60232  25.718  33.235  49.689
68309W        W60233   5.250  38.217  53.343
68310W        W60234  31.713   7.769  51.532
68311W        W60235  35.235  12.230  50.615
68312W        W60236  41.206  18.247  50.591
68313W        W60237  13.260  28.717  49.688
68314W        W60238  18.261  15.231  51.525
68315W        W60239  11.736   2.249  52.406
68316W        W60240   4.244  21.760  51.064
68317W        W60241  14.228  15.729  51.076
68318W        W60242  43.190   2.788  51.974
68319W        W60243   0.762  23.726  51.042
68320W        W60244   5.262  38.727  50.616
68321W        W60245  10.754  45.179  51.527
68322W        W60246  31.737  38.190  52.870
68323W        W60247  28.217  32.216  50.154
68324W        W60248  38.698  26.755  50.586
68325W        W60249   5.763  28.237  49.699
68326W        W60250   6.764  16.750  51.498
68327W        W60251  10.250  43.704  52.446
68328W        W60252  45.679   1.772  51.959
68329W        W60253  20.245  12.254  51.527
68330W        W60254  12.741  45.222  52.880
68331W        W60255   8.746  37.237  50.153
68332W        W60256  35.740  43.718  52.429
68333W        W60257   6.271  13.268  51.072
68334W        W60258  44.211   5.748  51.988
68335W        W60259  12.275  39.230  51.947
68336W        W60260  17.752  17.758  52.441
68337W        W60261  39.685  31.210  49.702
68338W        W60262  39.719   5.251  52.448
68339W        W60263  11.734  13.239  49.671
68340W        W60264   0.780  13.246  50.139
68341W        W60265   8.248   9.763  51.073
68342W        W60266  23.749   9.735  52.445
68343W        W60267  37.212  16.770  49.676
68344W        W60268  16.758   7.779  53.791
68345W        W60269  36.193  41.696  52.880
68346W        W60270  10.239  45.676  51.965
68347W        W60271  25.243   6.758  53.785
68348W        W60272  44.222  46.710  51.955
68349W        W60273  17.744  22.724  53.796
68350W        W60274  27.726  25.718  53.343
68351W        W60275  30.739  39.705  51.952
68352W        W60276  16.723  43.694  51.979
68353W        W60277   8.282  12.266  52.889
68354W        W60278  18.233  16.732  49.669
68355W        W60279  41.710   1.274  49.700
68356W        W60280  34.215  14.727  51.951
68357W        W60281   8.255  19.742  49.705
68358W        W60282   2.761  45.214  51.039
68359W        W60283   7.279  11.272  49.689
68360W        W60284  26.710   5.742  52.430
68361W        W60285  39.693  10.248  51.051
68362W        W60286  36.691  34.218  50.137
68363W        W60287   9.259  17.731  53.807
68364W        W60288  36.205  36.734  49.665
68365W        W60289  26.737   6.786  52.890
68366W        W60290  28.716  25.215  51.042
68367W        W60291  45.180  11.762  52.435
68368W        W60292  16.247  27.247  50.149
68369W        W60293  34.210  18.233  51.513
68370W        W60294  39.197   6.777  51.501
68371W        W60295  19.741  28.706  53.344
68372W        W60296   7.252  22.714  52.446
68373W        W60297   7.249  12.268  51.499
68374W        W60298  43.211  44.184  50.126
68375W        W60299  43.219  35.209  50.611
68376W        W60300  39.732  35.730  51.982
68377W        W60301  36.709  41.194  53.359
68378W        W60302  13.775  18.227  53.785
68379W        W60303   9.746  44.177  49.678
68380W        W60304  33.245  28.728  53.346
68381W        W60305  26.247   3.282  49.698
68382W        W60306  37.220  27.713  51.497
68383W        W60307  14.728  12.232  51.990
68384W        W60308  34.220  45.716  49.689
68385W        W60309  17.766  36.195  49.705
68386W        W60310   1.791  22.239  52.415
68387W        W60311  29.249  47.175  53.807
68388W        W60312  42.688  11.270  50.587
68389W        W60313  23.740   2.295  50.611
68390W        W60314   6.750  43.193  52.415
68391W        W60315  16.256   0.779  53.810
68392W        W60316  17.250  10.264  51.979
68393W        W60317   6.255  45.683  53.329
68394W        W60318  22.221   4.782  53.336
68395W        W60319  28.752  11.766  51.952
68396W        W60320  44.181  40.226  51.979
68397W        W60321  37.717  37.210  51.036
68398W        W60322  45.698  33.227  53.361
68399W        W60323  16.737   4.783  52.425
68400W        W60324  41.214  48.203  53.816
68401W        W60325  31.709  40.185  51.064
68402W        W60326  34.705  38.727  52.418
68403W        W60327  46.174  33.208  51.953
68404W        W60328  17.726  45.689  52.429
68405W        W60329  36.206  12.267  52.868
68406W        W60330   6.767   5.245  51.978
68407W        W60331   2.749   4.271  50.621
68408W        W60332  33.200  18.230  49.678
68409W        W60333   2.790  32.217  51.038
68410W        W60334  34.207  35.222  50.611
68411W        W60335  46.182  29.709  51.977
68412W        W60336   0.254  15.267  52.884
68413W        W60337  11.769  29.221  50.152
68414W        W60338  27.233   5.760  53.324
68415W        W60339  13.277  30.225  53.343
68416W        W60340  12.739  10.262  52.435
68417W        W60341  45.215   6.245  53.778
68418W        W60342  21.224  28.215  51.987
68419W        W60343  12.257  45.688  51.508
68420W        W60344  10.758  22.745  51.497
68421W        W60345  18.247   2.248  50.136
68422W        W60346  40.730  39.216  52.882
68423W        W60347  22.237  29.204  50.165
68424W        W60348  45.207  37.727  49.670
68425W        W60349  25.715  34.718  50.146
68426W        W60350  35.711  29.729  52.885
68427W        W60351  47.679  41.710  51.042
68428W        W60352  27.241  37.699  53.338
68429W        W60353   4.268  18.233  49.691
68430W        W60354  14.728  32.226  52.861
68431W        W60355  19.764   7.741  52.872
68432W        W60356  16.240  35.714  52.438
68433W        W60357  11.777  30.729  51.950
68434W        W60358  23.713   7.285  52.862
68435W        W60359  10.282  32.211  52.867
68436W        W60360  26.226  19.763  50.582
68437W        W60361  46.700  11.262  51.523
68438W        W60362   5.263   4.770  52.427
68439W        W60363  35.213  26.245  53.318
68440W        W60364  37.699  35.233  50.620
68441W        W60365   4.761   0.298  49.694
68442W        W60366  40.198   4.268  53.326
68443W        W60367   6.259  39.216  50.583
68444W        W60368  19.765  11.733  51.043
68445W        W60369  43.210  27.736  52.875
68446W        W60370  19.240  32.204  50.129
68447W        W60371  32.202  48.214  50.127
68448W        W60372  18.762  11.770  51.520
68449W        W60373  37.706  39.733  51.961
68450W        W60374   4.759  39.220  51.952
68451W        W60375  10.758  26.214  50.129
68452W        W60376  32.740  27.721  51.978
68453W        W60377  45.185  47.710  49.697
68454W        W60378  20.726  14.741  53.318
68455W        W60379   8.283  31.717  52.872
68456W        W60380  19.754  34.211  50.156
68457W        W60381  36.722  32.730  51.500
68458W        W60382   8.765   8.251  51.493
68459W        W60383   3.783  34.237  52.862
68460W        W60384   2.249   9.766  49.695
68461W        W60385   5.768  23.257  51.949
68462W        W60386  41.698  37.220  50.125
68463W        W60387  32.218  43.228  52.897
68464W        W60388  39.214  27.743  52.412
68465W        W60389  19.262   6.754  50.166
68466W        W60390  35.234  17.733  52.877
68467W        W60391  27.205   3.750  50.618
68468W        W60392  40.189  19.253  51.529
68469W        W60393   3.791  17.751  51.529
68470W        W60394  48.197  30.734  51.039
68471W        W60395  42.211  28.709  51.529
68472W        W60396  15.744  31.710  50.622
68473W        W60397  31.741  12.744  52.860
68474W        W60398  42.200  30.718  51.044
68475W        W60399  44.715  31.229  52.411
68476W        W60400  10.736   8.238  53.352
68477W        W60401  45.210  31.224  49.689
68478W        W60402  40.732  44.694  51.953
68479W        W60403   8.770  39.195  52.861
68480W        W60404  12.274   1.770  50.129
68481W        W60405  45.214  46.183  51.066
68482W        W60406   4.778  38.719  52.873
68483W        W60407  25.220  37.735  53.336
68484W        W60408  30.234  25.721  51.070
68485W        W60409  31.238  20.239  50.608
68486W        W60410   2.765   0.277  52.408
68487W        W60411  41.197  39.691  50.597
68488W        W60412  13.271  35.206  52.432
68489W        W60413  31.735  35.235  53.337
68490W        W60414  31.747  15.752  53.779
68491W        W60415  38.233  41.210  51.986
68492W        W60416  45.207  24.246  53.799
68493W        W60417   4.775  24.237  52.867
68494W        W60418   2.277  11.280  50.615
68495W        W60419  47.713  24.712  51.977
68496W        W60420   9.278  23.760  50.138
68497W        W60421   3.269  33.217  52.446
68498W        W60422  29.705  46.688  51.958
68499W        W60423  26.708   1.776  50.143
68500W        W60424  44.200   7.770  53.802
68501W        W60425  41.731   7.747  50.159
68502W        W60426   3.746  34.715  51.982
68503W        W60427  47.196  21.752  50.585
68504W        W60428  47.701  37.190  52.429
68505W        W60429  20.260  35.700  52.892
68506W        W60430  36.190  24.220  51.519
68507W        W60431  28.223  47.677  52.894
68508W        W60432   7.774  28.244  51.979
68509W        W60433  41.717  19.723  51.987
68510W        W60434  25.241   8.766  51.513
68511W        W60435  30.229  13.774  52.407
68512W        W60436  10.259  19.243  51.499
68513W        W60437   9.772  46.690  51.062
68514W        W60438  30.725  30.222  52.867
68515W        W60439  45.682  29.232  53.775
68516W        W60440  32.231  30.721  52.891
68517W        W60441  46.684  36.725  53.790
68518W        W60442  25.248  42.201  51.980
68519W        W60443  33.222  17.770  50.603
68520W        W60444  23.714  35.722  51.973
68521W        W60445  47.177  25.239  49.705
68522W        W60446  29.242   6.743  51.038
68523W        W60447  44.686  10.770  49.680
68524W        W60448   1.786  43.195  52.892
68525W        W60449  41.209  23.726  51.983
68526W        W60450  39.218   8.286  49.709
68527W        W60451  30.733  33.217  50.151
68528W        W60452  43.186  12.274  51.520
68529W        W60453  29.223  10.254  51.491
68530W        W60454  14.728  17.733  52.431
68531W        W60455  32.736  23.226  51.512
68532W        W60456  47.698  23.247  51.521
68533W        W60457  20.266   8.252  49.675
68534W        W60458  26.709   0.275  53.342
68535W        W60459   6.266  45.697  52.427
68536W        W60460   1.250  10.264  51.034
68537W        W60461  32.721  35.222  49.693
68538W        W60462  41.682   5.787  49.706
68539W        W60463  30.235  13.734  53.810
68540W        W60464  38.687  35.709  50.128
68541W        W60465  32.199  25.744  50.620
68542W        W60466   7.780  23.216  49.673
68543W        W60467  44.724  22.228  51.949
68544W        W60468  37.216  40.713  52.436
68545W        W60469  23.236   8.271  49.686
68546W        W60470  18.750  29.225  51.061
68547W        W60471   6.285  14.271  53.789
68548W        W60472   6.252  33.734  51.991
68549W        W60473  14.248  26.750  51.048
68550W        W60474  10.267  38.702  51.058
68551W        W60475   3.788  14.238  51.535
68552W        W60476  48.219  27.708  51.059
68553W        W60477  43.208  21.751  53.811
68554W        W60478  11.269  31.214  51.533
68555W        W60479  38.201  40.194  50.620
68556W        W60480  21.264  27.215  52.867
68557W        W60481   3.273  20.226  51.515
68558W        W60482  21.750   5.250  53.801
68559W        W60483  23.742  23.732  49.708
68560W        W60484  25.753  44.196  50.162
68561W        W60485  39.698   6.273  53.330
68562W        W60486  24.218   2.763  53.796
68563W        W60487  34.728  37.234  51.516
68564W        W60488   3.279  26.210  52.872
68565W        W60489   6.758  34.214  50.581
68566W        W60490  33.200  32.203  51.963
68567W        W60491  37.192  36.710  51.069
68568W        W60492  41.185  20.222  53.322
68569W        W60493  45.202   2.276  53.358
68570W        W60494  40.208  40.204  50.136
68571W        W60495  42.184   7.750  49.668
68572W        W60496  31.219  45.197  49.696
68573W        W60497  26.744   6.270  49.687
68574W        W60498  14.270   7.275  51.052
68575W        W60499   7.282   1.256  52.898
68576W        W60500  17.732  26.738  51.981
68577W        W60501  43.680  13.269  50.132
68578W        W60502  37.708  36.232  52.897
68579W        W60503  46.697  34.228  49.692
68580W        W60504  31.218  29.246  53.793
68581W        W60505   3.275  39.230  52.424
68582W        W60506  21.722   2.273  51.526
68583W        W60507  37.233  18.753  51.968
68584W        W60508  11.750  26.716  53.800
68585W        W60509   9.276  47.710  52.884
68586W        W60510   0.785  10.743  51.037
68587W        W60511  37.723  44.223  52.866
68588W        W60512  12.763  37.198  53.348
68589W        W60513  15.241  28.730  49.687
68590W        W60514  41.729  21.234  51.052
68591W        W60515  36.215  42.699  53.794
68592W        W60516  25.215  27.743  52.876
68593W        W60517  37.234   7.752  52.404
68594W        W60518   6.749   4.760  51.960
68595W        W60519  20.263  44.676  53.798
68596W        W60520  31.204  11.235  50.583
68597W        W60521  48.191  29.742  50.605
68598W        W60522  25.728   5.754  49.700
68599W        W60523  27.222  15.249  53.773
68600W        W60524  42.225  37.237  51.049
68601W        W60525   7.772  21.248  51.497
68602W        W60526  46.700  21.233  50.603
68603W        W60527  42.680  20.747  52.861
68604W        W60528  20.219  19.733  53.325
68605W        W60529  34.227   1.791  51.061
68606W        W60530  26.209  42.209  52.439
68607W        W60531  10.744  16.271  51.034
68608W        W60532   1.750  14.269  52.859
68609W        W60533  40.719  42.716  50.156
68610W        W60534   3.285  20.739  53.346
68611W        W60535  38.216  44.226  52.407
68612W        W60536  10.756  17.769  53.330
68613W        W60537  30.237   8.275  51.509
68614W        W60538  43.693  20.220  52.879
68615W        W60539  36.227  21.245  51.048
68616W        W60540  30.719  36.211  51.069
68617W        W60541  36.198  29.734  51.057
68618W        W60542  40.226   3.752  53.348
68619W        W60543  25.216   9.774  51.525
68620W        W60544  10.272   1.257  49.679
68621W        W60545  29.206  36.232  51.963
68622W        W60546  18.754  35.236  50.164
68623W        W60547   8.765  15.727  50.144
68624W        W60548  32.245  16.772  49.669
68625W        W60549  26.753  40.221  53.317
68626W        W60550  19.224  20.232  52.428
68627W        W60551  34.209  24.256  52.410
68628W        W60552  48.181   9.270  51.058
68629W        W60553  25.219  43.702  53.772
68630W        W60554  44.715  11.735  53.810
68631W        W60555  10.282  44.188  51.988
68632W        W60556  34.720  14.248  52.424
68633W        W60557  43.201   0.761  51.989
68634W        W60558  43.208  18.245  52.433
68635W        W60559  43.703  14.732  50.619
68636W        W60560  40.692  33.237  51.074
68637W        W60561  33.731  13.767  52.428
68638W        W60562   6.763  44.185  50.610
68639W        W60563   8.760  37.725  49.669
68640W        W60564  26.237  31.236  52.886
68641W        W60565   9.741  39.225  50.149
68642W        W60566  45.717   8.241  51.041
68643W        W60567  10.268  27.212  53.810
68644W        W60568  12.246  31.703  53.347
68645W        W60569  43.721  11.258  53.316
68646W        W60570  43.685  18.730  50.164
68647W        W60571  22.235  35.204  51.034
68648W        W60572  10.257   3.764  52.435
68649W        W60573  47.217   0.263  50.130
68650W        W60574  26.215  16.269  53.774
68651W        W60575   8.769  32.735  51.979
68652W        W60576  34.227  22.235  52.881
68653W        W60577  39.695  42.201  53.799
68654W        W60578  14.267  21.230  49.690
68655W        W60579  15.246  23.237  50.592
68656W        W60580   9.769  46.183  53.786
68657W        W60581  15.748  17.738  49.705
68658W        W60582  34.209  15.255  50.133
68659W        W60583  38.190  47.677  49.683
68660W        W60584  10.248   6.256  52.444
68661W        W60585  47.209  31.706  50.601
68662W        W60586  33.735   6.756  52.445
68663W        W60587  37.732  16.224  51.512
68664W        W60588  31.239   5.253  52.885
68665W        W60589  18.255  12.236  53.817
68666W        W60590  17.248  30.707  52.879
68667W        W60591  43.193   3.794  51.955
68668W        W60592   2.793  34.734  49.669
68669W        W60593  36.237  27.229  51.961
68670W        W60594  13.733  47.196  51.069
68671W        W60595  16.226  32.205  53.808
68672W        W60596  29.723  30.741  50.581
68673W        W60597  27.230  25.721  52.878
68674W        W60598  23.260  38.217  51.062
68675W        W60599  19.248  38.723  51.533
68676W        W60600  24.736  16.267  51.521
68677W        W60601   5.751  34.723  49.682
68678W        W60602  25.255   5.790  50.599
68679W        W60603   3.256   5.262  52.867
68680W        W60604  19.750  19.249  52.426
68681W        W60605  22.225  37.719  50.584
68682W        W60606  33.241   7.772  51.532
68683W        W60607  26.220  34.715  50.616
68684W        W60608   1.771  22.240  49.691
68685W        W60609  20.743  27.222  52.445
68686W        W60610  11.773  35.721  51.501
68687W        W60611   7.746  41.192  52.864
68688W        W60612  35.197  17.225  51.533
68689W        W60613  44.186  27.247  51.968
68690W        W60614  10.778  12.775  52.417
68691W        W60615  35.737  44.191  53.780
68692W        W60616  26.252  21.239  50.126
68693W        W60617   2.275  19.233  49.695
68694W        W60618  33.203  42.180  52.884
68695W        W60619  39.685  15.735  52.412
68696W        W60620  31.700  15.272  51.074
68697W        W60621  47.707  14.265  53.339
68698W        W60622   2.774  44.723  50.589
68699W        W60623  19.727  12.762  50.590
68700W        W60624  45.676   1.780  53.351
68701W        W60625  41.219  34.736  52.893
68702W        W60626   4.254  23.241  49.702
68703W        W60627  33.214   8.762  52.894
68704W        W60628  35.691   9.758  52.437
68705W        W60629  19.766   7.753  53.778
68706W        W60630  15.736  18.257  51.072
68707W        W60631  32.244  36.739  51.518
68708W        W60632  38.724  25.709  51.982
68709W        W60633  32.728  48.195  52.425
68710W        W60634  27.725   8.275  53.813
68711W        W60635  10.770  10.768  50.619
68712W        W60636  27.231   8.242  53.803
68713W        W60637  31.707  42.687  51.074
68714W        W60638  34.729  19.724  51.512
68715W        W60639  32.216  19.250  52.426
68716W        W60640   8.285  38.204  51.519
68717W        W60641  32.238   0.262  50.137
68718W        W60642  26.243  34.719  49.670
68719W        W60643   8.273  28.746  52.444
68720W        W60644  17.222   1.795  50.129
68721W        W60645  28.735   8.266  51.046
68722W        W60646  27.742   6.747  53.324
68723W        W60647  21.255   5.788  49.671
68724W        W60648  18.723   8.748  53.799
68725W        W60649  32.207  38.228  53.792
68726W        W60650  28.720  28.233  52.413
68727W        W60651  10.756  33.196  52.889
68728W        W60652  11.255   7.755  51.980
68729W        W60653  33.207   9.750  53.328
68730W        W60654  35.698  17.235  53.318
68731W        W60655  15.764   6.746  52.427
68732W        W60656   8.766  26.747  51.498
68733W        W60657  30.250  21.217  51.955
68734W        W60658  16.723  41.198  50.607
68735W        W60659  21.242   5.258  50.595
68736W        W60660  10.243   0.776  53.778
68737W        W60661  35.239   2.778  51.955
68738W        W60662  45.724  41.198  51.038
68739W        W60663  41.699  44.194  51.949
68740W        W60664  31.710  10.275  51.535
68741W        W60665  24.724   6.266  50.606
68742W        W60666   3.762  12.752  51.975
68743W        W60667   8.782  46.181  53.342
68744W        W60668   7.287  20.234  53.342
68745W        W60669  23.748   3.780  53.359
68746W        W60670  40.206  21.241  52.447
68747W        W60671  34.712  42.692  51.072
68748W        W60672  35.202  30.239  52.431
68749W        W60673  40.730  25.233  51.067
68750W        W60674  22.250  35.700  51.050
68751W        W60675   2.277  28.224  52.878
68752W        W60676  16.244  36.697  50.582
68753W        W60677  11.252  14.755  53.349
68754W        W60678  29.222   0.265  52.438
68755W        W60679   2.760  11.778  51.974
68756W        W60680   0.271  32.738  52.407
68757W        W60681   9.265  32.238  51.079
68758W        W60682   7.265  12.261  52.434
68759W        W60683  25.755  43.724  53.326
68760W        W60684  26.225  42.702  51.062
68761W        W60685  35.234   5.264  50.606
68762W        W60686  21.243  17.769  50.145
68763W        W60687  34.225  30.710  53.780
68764W        W60688  21.750  42.729  53.788
68765W        W60689  24.236  27.213  51.979
68766W        W60690  42.682  36.227  51.055
68767W        W60691  40.688  14.262  49.706
68768W        W60692  29.711  23.222  53.326
68769W        W60693  23.753  34.223  50.149
68770W        W60694  13.253   2.772  53.773
68771W        W60695  40.727   5.772  50.147
68772W        W60696  35.693  11.750  51.044
68773W        W60697   3.293  37.223  53.328
68774W        W60698  33.208  41.188  50.134
68775W        W60699   8.262   7.787  53.798
68776W        W60700  28.741  36.735  51.493
68777W        W60701  11.761   1.279  49.696
68778W        W60702  32.212  28.236  51.525
68779W        W60703  21.746  31.709  51.048
68780W        W60704  22.262  31.705  53.799
68781W        W60705  44.693   4.764  50.609
68782W        W60706   8.785  33.724  53.788
68783W        W60707  38.702  38.730  49.679
68784W        W60708  18.257  33.216  50.619
68785W        W60709  15.729   7.747  50.595
68786W        W60710   8.740  41.214  51.504
68787W        W60711  10.756  25.725  53.788
68788W        W60712  25.257  29.737  51.533
68789W        W60713  23.731  48.191  53.815
68790W        W60714  11.774  42.189  52.871
68791W        W60715   2.767  13.229  53.324
68792W        W60716  19.725  19.753  50.609
68793W        W60717  27.216  15.725  51.525
68794W        W60718  17.258  25.233  51.981
68795W        W60719  42.206  19.763  53.815
68796W        W60720   8.745  11.262  50.130
68797W        W60721  19.236  22.716  51.073
68798W        W60722  35.724  25.225  53.779
68799W        W60723  13.253  12.769  51.515
68800W        W60724  26.747  34.234  50.611
68801W        W60725  38.696  43.714  50.599
68802W        W60726  39.719  26.743  51.495
68803W        W60727  11.767  34.205  50.140
68804W        W60728  25.234  15.760  50.151
68805W        W60729  39.694  16.224  52.886
68806W        W60730  17.231  45.202  50.613
68807W        W60731  47.715   4.258  49.666
68808W        W60732  31.705   1.777  51.041
68809W        W60733  11.280  41.709  51.989
68810W        W60734  46.681  33.723  52.883
68811W        W60735  29.217   7.749  52.429
68812W        W60736  15.243   0.781  51.044
68813W        W60737   7.777  33.205  51.531
68814W        W60738  14.262   8.273  53.321
68815W        W60739  13.271  24.735  52.430
68816W        W60740  14.230  13.731  53.352
68817W        W60741   0.779  30.734  49.684
68818W        W60742   9.751  30.703  51.071
68819W        W60743  47.216   0.291  52.871
68820W        W60744  26.736  44.179  52.886
68821W        W60745  10.777  46.175  50.619
68822W        W60746  46.220   9.753  50.600
68823W        W60747  12.742  36.738  49.707
68824W        W60748  24.724  36.208  53.317
68825W        W60749  43.695  14.275  49.667
68826W        W60750  22.722  12.266  53.774
68827W        W60751  25.739  19.226  50.122
68828W        W60752  10.780  31.698  51.038
68829W        W60753  33.200  19.760  51.060
68830W        W60754   8.757  23.748  49.689
68831W        W60755  25.736  17.751  49.687
68832W        W60756  29.229  23.218  50.162
68833W        W60757  46.721  24.238  51.044
68834W        W60758  45.692  11.749  51.979
68835W        W60759  42.691   4.270  49.710
68836W        W60760  28.705  48.204  51.511
68837W        W60761   0.276  43.189  50.164
68838W        W60762  12.773   3.257  49.688
68839W        W60763  33.229  20.730  51.511
68840W        W60764  41.224  21.726  49.669
68841W        W60765  31.700  34.228  51.492
68842W        W60766   2.769   4.785  51.948
68843W        W60767  32.232  22.757  50.579
68844W        W60768   9.283   1.281  52.879
68845W        W60769  21.724  23.726  53.776
68846W        W60770  36.196  12.733  52.437
68847W        W60771  33.239   4.754  52.883
68848W        W60772  16.766  14.744  49.678
68849W        W60773  21.737   2.286  49.702
68850W        W60774  44.186  24.737  49.666
68851W        W60775  38.201   3.267  49.693
68852W        W60776  38.714  40.201  53.346
68853W        W60777  37.199  20.262  52.862
68854W        W60778  18.733  46.702  53.320
68855W        W60779  45.191  35.239  50.144
68856W        W60780  38.729  39.221  51.508
68857W        W60781  27.236  41.730  53.337
68858W        W60782   5.781  17.732  50.581
68859W        W60783   3.786  21.749  51.035
68860W        W60784  12.733   0.785  53.798
68861W        W60785  13.739  25.209  53.792
68862W        W60786  37.729  43.703  52.429
68863W        W60787  31.725  29.250  53.338
68864W        W60788  42.692   9.283  52.885
68865W        W60789  44.678   1.760  53.786
68866W        W60790  21.739  16.255  51.057
68867W        W60791  13.756   7.765  52.430
68868W        W60792  22.257  41.208  49.696
68869W        W60793   0.250  37.737  52.871
68870W        W60794  36.205   9.745  51.495
68871W        W60795  31.734  39.188  49.674
68872W        W60796  16.758   2.791  49.687
68873W        W60797  38.224  16.738  51.067
68874W        W60798   4.776  29.212  50.610
68875W        W60799  33.732  45.206  53.328
68876W        W60800  37.733  15.242  53.336
68877W        W60801  46.702  39.225  50.606
68878W        W60802   8.760  45.219  52.886
68879W        W60803  24.239  37.198  52.440
68880W        W60804   1.275  31.730  53.338
68881W        W60805   2.295  34.725  51.063
68882W        W60806  24.212  22.240  51.975
68883W        W60807  14.740  34.739  50.129
68884W        W60808  17.232   6.761  52.448
68885W        W60809  31.710  34.706  49.691
68886W        W60810  17.226  25.211  52.884
68887W        W60811  30.742  12.279  52.870
68888W        W60812  39.211  15.228  49.696
68889W        W60813  12.770  20.731  53.794
68890W        W60814   5.774  48.220  50.140
68891W        W60815  10.766  19.739  51.965
68892W        W60816  47.697  48.186  53.803
68893W        W60817  36.698   2.274  51.963
68894W        W60818  17.722  27.724  51.989
68895W        W60819   8.245  25.713  53.336
68896W        W60820  32.231  33.242  53.786
68897W        W60821  18.721  40.207  53.811
68898W        W60822   3.253  28.235  51.500
68899W        W60823   3.760  17.760  50.622
68900W        W60824  20.746  32.741  52.860
68901W        W60825  37.236  17.743  53.793
68902W        W60826  45.677  39.232  53.785
68903W        W60827  34.717  42.197  53.806
68904W        W60828   0.288  47.685  51.070
68905W        W60829  13.746  46.713  50.613
68906W        W60830  34.217  20.222  49.672
68907W        W60831  18.750  11.267  52.404
68908W        W60832  44.184  37.192  49.675
68909W        W60833  29.721  10.268  52.863
68910W        W60834  43.714   7.776  51.967
68911W        W60835  44.700  27.206  51.962
68912W        W60836  21.724  28.738  50.622
68913W        W60837   2.253  35.237  52.885
68914W        W60838  42.218  35.230  53.325
68915W        W60839  16.771  23.754  51.976
68916W        W60840  14.244  10.250  50.606
68917W        W60841  16.225  43.722  49.708
68918W        W60842  20.755  32.221  52.885
68919W        W60843   2.778  30.200  49.700
68920W        W60844   2.276  30.211  52.425
68921W        W60845  18.749   4.746  53.337
68922W        W60846  46.182  12.734  53.781
68923W        W60847   3.250   9.280  51.520
68924W        W60848  10.270  48.176  51.070
68925W        W60849  31.739  35.225  51.063
68926W        W60850   6.260  27.220  53.806
68927W        W60851   3.286  14.231  52.868
68928W        W60852  45.190  25.709  51.073
68929W        W60853  18.721  32.735  49.696
68930W        W60854  20.728  41.224  49.669
68931W        W60855  40.686  36.724  51.528
68932W        W60856  17.225  38.726  52.888
68933W        W60857  44.682  21.758  52.440
68934W        W60858  38.235  16.725  53.357
68935W        W60859  22.724   2.270  49.684
68936W        W60860  31.214  11.747  53.802
68937W        W60861   5.743  46.716  50.146
68938W        W60862  42.691  44.677  51.525
68939W        W60863   8.761  28.240  51.034
68940W        W60864  32.245  23.223  49.699
68941W        W60865  22.740   8.243  51.518
68942W        W60866  16.271  23.719  50.138
68943W        W60867  22.724  32.731  51.982
68944W        W60868  31.246  15.774  50.153
68945W        W60869  19.245  28.747  53.798
68946W        W60870   9.266  26.740  52.446
68947W        W60871  44.685  15.746  52.882
68948W        W60872  15.726  11.259  49.696
68949W        W60873  20.747  38.192  52.417
68950W        W60874  38.735  14.774  52.447
68951W        W60875  11.763  26.723  53.331
68952W        W60876  37.721  21.218  53.795
68953W        W60877  10.734   8.286  50.129
68954W        W60878  38.730   7.254  51.071
68955W        W60879  12.768  23.242  51.963
68956W        W60880  26.253  46.205  53.774
68957W        W60881  19.258  39.189  51.495
68958W        W60882  27.753  22.713  52.413
68959W        W60883  22.749   7.744  50.122
68960W        W60884  12.270  27.217  53.339
68961W        W60885   6.275  28.229  50.619
68962W        W60886  42.720  13.763  50.609
68963W        W60887  32.701  30.211  49.702
68964W        W60888  23.250  44.719  52.423
68965W        W60889  22.752  23.758  51.965
68966W        W60890  41.716  48.201  53.346
68967W        W60891  43.700   9.282  49.695
68968W        W60892  12.754  46.181  53.807
68969W        W60893  11.735  13.231  51.947
68970W        W60894  21.252  13.253  52.444
68971W        W60895  48.171  27.740  51.981
68972W        W60896  32.230  33.203  51.967
68973W        W60897  30.201   8.246  50.596
68974W        W60898  12.768  17.249  51.969
68975W        W60899  30.204  32.707  53.781
68976W        W60900  25.755  10.272  51.039
68977W        W60901  43.707  27.740  49.683
68978W        W60902  46.717  48.197  50.133
68979W        W60903  14.268  19.736  53.340
68980W        W60904  46.678  33.705  51.960
68981W        W60905  27.216  40.732  50.581
68982W        W60906  43.228  25.226  53.815
68983W        W60907  41.185  33.200  50.129
68984W        W60908  27.742   5.753  50.157
68985W        W60909   9.245  17.761  52.417
68986W        W60910  15.728   7.252  53.355
68987W        W60911  41.221  24.743  51.036
68988W        W60912  32.743   9.745  52.878
68989W        W60913  17.743   2.779  50.584
68990W        W60914   5.752  25.242  51.502
68991W        W60915  34.194  33.243  49.677
68992W        W60916  45.222  30.214  52.445
68993W        W60917  29.731  16.236  51.949
68994W        W60918  41.707   1.253  52.444
68995W        W60919  36.191  21.716  49.692
68996W        W60920  38.723  25.221  50.611
68997W        W60921   9.763   4.743  53.347
68998W        W60922  22.257  11.259  51.953
68999W        W60923  38.214  25.726  50.613
69000W        W60924  14.739   7.268  51.060
69001W        W60925  32.198  21.249  51.492
69002W        W60926  34.223  23.226  51.962
69003W        W60927  41.183   3.262  53.355
69004W        W60928  28.245   3.272  51.950
69005W        W60929  26.734  42.203  51.990
69006W        W60930   3.747  22.228  51.499
69007W        W60931   9.254  21.226  53.805
69008W        W60932  22.735  31.705  50.601
69009W        W60933  20.755  10.275  52.446
69010W        W60934  30.229  47.220  50.593
69011W        W60935  13.260  22.216  51.506
69012W        W60936  29.733  44.205  52.416
69013W        W60937  10.274   2.762  51.042
69014W        W60938  18.739  20.220  53.800
69015W        W60939  46.191  40.192  53.787
69016W        W60940  42.183   2.278  50.601
69017W        W60941  44.205  29.241  52.412
69018W        W60942  31.235  17.735  53.786
69019W        W60943  34.227  36.218  51.959
69020W        W60944  38.229   6.788  51.978
69021W        W60945  23.723  25.222  50.165
69022W        W60946  40.687   5.248  50.160
69023W        W60947   2.279  14.228  51.989
69024W        W60948  14.731  32.732  50.158
69025W        W60949  17.768   6.240  50.165
69026W        W60950  45.189  45.704  51.971
69027W        W60951  36.197  41.204  52.407
69028W        W60952  14.236  39.221  50.148
69029W        W60953  42.696  18.231  53.816
69030W        W60954   3.758  32.211  53.318
69031W        W60955  29.250  33.196  51.065
69032W        W60956  13.736  41.727  53.785
69033W        W60957  39.717  16.260  51.957
69034W        W60958  14.251  43.696  51.508
69035W        W60959  42.712  23.213  51.053
69036W        W60960  35.699   2.260  53.788
69037W        W60961  47.215  23.735  51.038
69038W        W60962  39.213  25.726  53.785
69039W        W60963  17.236   2.282  52.892
69040W        W60964  27.751  26.729  50.578
69041W        W60965  40.698  10.272  51.975
69042W        W60966  42.697  40.215  53.782
69043W        W60967  44.199  39.210  50.580
69044W        W60968   2.790  29.219  52.899
69045W        W60969  30.727   9.238  50.577
69046W        W60970  35.705  28.751  53.319
69047W        W60971  30.207   7.782  52.878
69048W        W60972  31.233  10.265  51.041
69049W        W60973  48.200   8.776  52.868
69050W        W60974   8.752  27.254  50.158
69051W        W60975  40.733  20.222  51.967
69052W        W60976   7.250  13.235  49.701
69053W        W60977  43.701  37.196  53.773
69054W        W60978  24.718   7.260  49.682
69055W        W60979  45.217  21.216  51.497
69056W        W60980  38.697  26.255  52.413
69057W        W60981  36.707  11.273  51.517
69058W        W60982   2.789  12.248  53.802
69059W        W60983  13.254  14.227  49.703
69060W        W60984  22.236  41.189  50.602
69061W        W60985  31.207   1.275  49.666
69062W        W60986   3.747  21.261  50.606
69063W        W60987  18.728  13.239  50.121
69064W        W60988  42.728  39.195  49.690
69065W        W60989  34.698  25.733  50.128
69066W        W60990  45.682  40.731  51.973
69067W        W60991  10.247  43.713  50.600
69068W        W60992  25.739  43.698  51.514
69069W        W60993  23.725  46.184  51.968
69070W        W60994  24.242  10.748  51.510
69071W        W60995  37.229  45.683  53.778
69072W        W60996  39.218  47.683  52.415
69073W        W60997  46.219  28.703  49.676
69074W        W60998  16.738  45.189  52.422
69075W        W60999  39.211  13.259  53.353
69076W        W61000   0.256  26.748  52.887
69077W        W61001   9.264  18.264  52.427
69078W        W61002  36.717  46.701  51.499
69079W        W61003  44.204  23.250  49.670
69080W        W61004  23.246   5.785  53.791
69081W        W61005  21.741  11.242  51.045
69082W        W61006  40.715  45.705  53.319
69083W        W61007  47.686   6.746  52.862
69084W        W61008  44.677  44.705  51.965
69085W        W61009  16.246  45.205  49.671
69086W        W61010  22.722   8.760  51.510
69087W        W61011  37.202  31.223  53.789
69088W        W61012  41.208  35.695  53.798
69089W        W61013   3.757   8.260  49.672
69090W        W61014   0.768  17.738  52.863
69091W        W61015  26.727  27.733  49.696
69092W        W61016  42.725  48.189  53.813
69093W        W61017  19.741   4.752  52.437
69094W        W61018   6.740  42.718  51.978
69095W        W61019  22.216  25.252  50.160
69096W        W61020  16.229  23.751  50.580
69097W        W61021   6.286  20.761  49.693
69098W        W61022  35.215  15.726  49.691
69099W        W61023  24.250  29.702  51.509
69100W        W61024  37.737  19.766  53.788
69101W        W61025  40.202   2.764  51.505
69102W        W61026   1.279  20.225  52.866
69103W        W61027   5.276  14.244  53.347
69104W        W61028  31.238  19.220  53.783
69105W        W61029  23.738  38.217  53.352
69106W        W61030   7.781  22.262  52.876
69107W        W61031   4.271  30.249  53.812
69108W        W61032  32.216  13.245  50.588
69109W        W61033  36.699   9.756  50.127
69110W        W61034  24.246  11.739  51.074
69111W        W61035   8.776   0.269  50.126
69112W        W61036  23.751   0.775  51.980
69113W        W61037  19.736  46.189  53.785
69114W        W61038  30.228   8.267  51.066
69115W        W61039  32.741   3.286  53.346
69116W        W61040   6.264   2.746  51.960
69117W        W61041  27.241  14.232  52.866
69118W        W61042  16.268   1.282  50.617
69119W        W61043  37.198  39.226  49.707
69120W        W61044  28.209   0.766  53.811
69121W        W61045  11.236  37.218  51.985
69122W        W61046  30.725   7.780  52.408
69123W        W61047   6.247  11.779  51.072
69124W        W61048  14.240   5.290  51.519
69125W        W61049  13.733  44.209  52.873
69126W        W61050  27.710  44.687  53.324
69127W        W61051   1.298  18.226  49.681
69128W        W61052   4.290  38.725  52.888
69129W        W61053  22.755   0.280  49.680
69130W        W61054  35.208  41.216  53.338
69131W        W61055  20.242   1.791  51.076
69132W        W61056  15.763  45.182  51.042
69133W        W61057  47.689  37.221  51.947
69134W        W61058  27.753  29.731  51.513
69135W        W61059   4.781  11.777  51.977
69136W        W61060  18.748  10.252  51.064
69137W        W61061  36.719   0.265  52.871
69138W        W61062   0.789  43.223  49.677
69139W        W61063   3.768  46.697  51.510
69140W        W61064  23.733  34.211  53.329
69141W        W61065  23.732  12.236  51.045
69142W        W61066  36.725  12.268  50.134
69143W        W61067  23.755  47.191  50.149
69144W        W61068  12.264  45.723  52.405
69145W        W61069  17.232  33.711  52.895
69146W        W61070  24.238  39.225  49.673
69147W        W61071  21.223   1.777  53.799
69148W        W61072   9.759   1.296  52.436
69149W        W61073  18.752  43.722  53.335
69150W        W61074  45.216  21.719  52.435
69151W        W61075  20.748  38.719  50.587
69152W        W61076  17.245  34.224  52.885
69153W        W61077  10.273  22.229  50.144
69154W        W61078   7.251  47.679  50.618
69155W        W61079  18.724   9.771  50.124
69156W        W61080  36.737  33.718  50.590
69157W        W61081  43.710  22.716  53.335
69158W        W61082   8.758   3.247  51.079
69159W        W61083  32.205  25.757  51.044
69160W        W61084   3.789  44.221  51.972
69161W        W61085  14.760  23.737  51.491
69162W        W61086  12.761  33.226  53.319
69163W        W61087  43.214  43.179  51.973
69164W        W61088  35.695  18.722  53.353
69165W        W61089  12.233  39.705  49.699
69166W        W61090  28.227  23.230  52.411
69167W        W61091  31.746  35.728  53.790
69168W        W61092  13.273  33.222  50.586
69169W        W61093  39.728  24.754  53.778
69170W        W61094  21.217  24.754  49.667
69171W        W61095   3.253  18.737  51.529
69172W        W61096  25.256  12.242  53.330
69173W        W61097  41.220  43.694  52.862
69174W        W61098  11.749  43.683  49.679
69175W        W61099  24.242  38.207  51.984
69176W        W61100  34.721   7.251  51.988
69177W        W61101   4.254  43.196  51.521
69178W        W61102  47.220  21.259  50.128
69179W        W61103   8.762  39.708  53.334
69180W        W61104  45.197  38.690  50.616
69181W        W61105   8.260  23.251  50.612
69182W        W61106  10.774   0.754  51.953
69183W        W61107  25.734  35.196  51.972
69184W        W61108  10.759  38.731  50.143
69185W        W61109  19.740   0.279  51.978
69186W        W61110  18.739  12.272  51.497
69187W        W61111   9.275  11.778  51.054
69188W        W61112   8.273  39.190  52.877
69189W        W61113  36.722  37.689  50.158
69190W        W61114  45.189  20.244  50.598
69191W        W61115  17.259  41.217  50.129
69192W        W61116   0.798   2.778  51.511
69193W        W61117  37.198  22.746  50.583
69194W        W61118  16.231  29.243  52.445
69195W        W61119   3.767   5.790  51.984
69196W        W61120   4.752  20.731  52.431
69197W        W61121   1.276  34.208  53.325
69198W        W61122  45.713  31.232  53.795
69199W        W61123   9.738  39.232  50.579
69200W        W61124  14.751  21.257  53.331
69201W        W61125   8.247  30.721  51.063
69202W        W61126  22.722  31.712  51.956
69203W        W61127   1.753  24.752  50.142
69204W        W61128  12.266  28.724  53.795
69205W        W61129  28.716  35.715  51.523
69206W        W61130   9.768  46.203  50.578
69207W        W61131   5.250   7.738  52.868
69208W        W61132  11.260  35.228  52.403
69209W        W61133  22.720  47.719  50.161
69210W        W61134  47.699  12.745  53.786
69211W        W61135  34.708  20.720  49.702
69212W        W61136  30.228  11.273  49.682
69213W        W61137  38.711   6.771  53.328
69214W        W61138  43.220  34.724  53.782
69215W        W61139   6.277   2.754  51.493
69216W        W61140  34.707  25.229  50.599
69217W        W61141  26.227  34.729  52.412
69218W        W61142  29.233  10.237  51.057
69219W        W61143  29.750  16.746  52.428
69220W        W61144   7.286  35.699  53.354
69221W        W61145  27.709  14.235  51.955
69222W        W61146  32.716  35.737  50.140
69223W        W61147  32.730   4.292  52.411
69224W        W61148  35.217  11.266  50.123
69225W        W61149  38.221  36.236  53.335
69226W        W61150  39.201  42.200  53.815
69227W        W61151   9.244  34.710  52.429
69228W        W61152   6.279  46.220  52.904
69229W        W61153  29.704  11.273  52.868
69230W        W61154   6.275  36.705  50.150
69231W        W61155  12.280  34.229  53.344
69232W        W61156  12.736  31.729  51.495
69233W        W61157  40.689   6.786  50.162
69234W        W61158  32.228  11.269  49.697
69235W        W61159  37.696  30.742  50.577
69236W        W61160  25.212   9.278  53.336
69237W        W61161  38.732   8.254  53.812
69238W        W61162  36.235  28.214  51.053
69239W        W61163  44.185  42.185  49.698
69240W        W61164   3.793  30.728  52.432
69241W        W61165  46.179  20.252  53.319
69242W        W61166  30.703  13.763  53.349
69243W        W61167  13.258  27.215  51.045
69244W        W61168  46.223   2.754  50.140
69245W        W61169  27.233  10.781  53.795
69246W        W61170  14.739  44.723  52.442
69247W        W61171  32.734  24.712  50.593
69248W        W61172  27.721  21.757  50.598
69249W        W61173  30.732  47.187  52.419
69250W        W61174  13.251   5.259  51.986
69251W        W61175  38.201  17.741  52.886
69252W        W61176   2.264  34.227  50.584
69253W        W61177   0.755  15.746  51.050
69254W        W61178  30.707  40.200  51.506
69255W        W61179  34.233   5.772  52.878
69256W        W61180  12.233  34.200  50.128
69257W        W61181   3.786   0.798  49.700
69258W        W61182   5.784  23.240  53.780
69259W        W61183  23.233  29.740  51.514
69260W        W61184  37.731  20.262  52.419
69261W        W61185  30.245  24.740  51.523
69262W        W61186   2.254   8.766  52.406
69263W        W61187   4.750  12.278  53.815
69264W        W61188  42.685  17.266  53.346
69265W        W61189  35.241  18.762  51.052
69266W        W61190  19.753  11.238  50.621
69267W        W61191  12.262   0.262  49.682
69268W        W61192  34.706   4.761  52.888
69269W        W61193   0.293  22.759  53.777
69270W        W61194  15.747  46.721  50.586
69271W        W61195  40.215  46.677  53.361
69272W        W61196  40.687   1.289  53.360
69273W        W61197   0.260   7.255  52.442
69274W        W61198  30.718  44.700  51.959
69275W        W61199  24.747  47.701  52.876
69276W        W61200  36.723  18.234  51.509
69277W        W61201   4.767   3.269  52.428
69278W        W61202  43.223  36.204  52.872
69279W        W61203  37.704  42.693  53.782
69280W        W61204  41.185  24.718  50.604
69281W        W61205   8.737  48.207  52.884
69282W        W61206  27.723  36.703  49.668
69283W        W61207  15.769  20.246  50.130
69284W        W61208  23.726  19.255  53.337
69285W        W61209  24.712   3.778  49.702
69286W        W61210  21.216   7.760  50.157
69287W        W61211   4.783   1.257  50.138
69288W        W61212  14.761   6.766  51.984
69289W        W61213   0.270  19.743  52.428
69290W        W61214  33.216  13.267  51.953
69291W        W61215  14.769  16.226  50.587
69292W        W61216  33.723  30.226  51.980
69293W        W61217  41.707  15.235  50.599
69294W        W61218   8.238  39.189  50.135
69295W        W61219  41.698  37.702  51.043
69296W        W61220  46.192  24.223  51.046
69297W        W61221  44.692   2.773  52.427
69298W        W61222  33.228  21.719  52.884
69299W        W61223   8.238  13.264  50.581
69300W        W61224  31.210  27.726  52.860
69301W        W61225  25.713  47.674  49.687
69302W        W61226   0.762  19.763  49.671
69303W        W61227  13.237  11.758  53.798
69304W        W61228  26.216  47.211  51.072
69305W        W61229  10.239   4.279  51.973
69306W        W61230  25.211   9.759  52.445
69307W        W61231   1.775  28.747  52.879
69308W        W61232  44.225  15.270  51.514
69309W        W61233  25.219  38.693  52.870
69310W        W61234  31.723  21.756  49.693
69311W        W61235  19.243  40.197  50.133
69312W        W61236  37.226  11.265  51.948
69313W        W61237   8.253  27.706  50.577
69314W        W61238  28.731  10.769  51.070
69315W        W61239  35.239  10.273  50.140
69316W        W61240  35.730  16.234  51.530
69317W        W61241   9.237  19.223  49.665
69318W        W61242  23.247  27.207  52.426
69319W        W61243   0.259   4.276  51.070
69320W        W61244   7.274  46.206  53.810
69321W        W61245  18.757   6.753  51.950
69322W        W61246   6.255  43.205  49.703
69323W        W61247  28.231  22.755  51.990
69324W        W61248  14.764   2.296  52.874
69325W        W61249  14.770  48.202  52.886
69326W        W61250  28.216   7.754  52.411
69327W        W61251  22.243  34.225  52.897
69328W        W61252  44.186  40.223  51.511
69329W        W61253  47.712  48.181  51.058
69330W        W61254  47.674  25.711  52.872
69331W        W61255  26.752  25.754  50.620
69332W        W61256  15.765  10.263  50.141
69333W        W61257  37.228  30.210  50.598
69334W        W61258   7.753  45.211  50.604
69335W        W61259  45.689  13.749  49.693
69336W        W61260   3.283  24.716  51.516
69337W        W61261  19.229  37.733  50.128
69338W        W61262  10.766  33.237  53.319
69339W        W61263  45.713  12.737  51.955
69340W        W61264  27.707  31.226  52.441
69341W        W61265  12.255  37.703  49.705
69342W        W61266   4.251  20.742  49.673
69343W        W61267  40.188  32.717  51.046
69344W        W61268  17.243  28.747  53.796
69345W        W61269  13.736   6.778  50.587
69346W        W61270  32.218  36.712  51.964
69347W        W61271  18.744  26.725  50.588
69348W        W61272  28.239   2.769  52.883
69349W        W61273  39.708   2.789  52.867
69350W        W61274  48.216  20.724  49.686
69351W        W61275  21.227  23.720  52.887
69352W        W61276  38.200  44.709  53.355
69353W        W61277  29.229  18.733  52.877
69354W        W61278  20.765   7.247  50.594
69355W        W61279  40.232   2.784  50.156
69356W        W61280   0.755  16.271  50.122
69357W        W61281  35.723  41.702  53.817
69358W        W61282  45.689  22.233  52.435
69359W        W61283  28.712  39.695  50.164
69360W        W61284   0.786   3.247  50.587
69361W        W61285  33.708  39.225  53.811
69362W        W61286  17.226  42.709  53.334
69363W        W61287  25.235   4.781  51.050
69364W        W61288  25.241  39.700  52.882
69365W        W61289  23.227   3.762  50.599
69366W        W61290  22.735  10.241  52.437
69367W        W61291  15.771  36.737  49.699
69368W        W61292  26.212  22.252  52.862
69369W        W61293  32.714  28.253  51.067
69370W        W61294  10.245  12.274  50.134
69371W        W61295   3.294  45.692  51.975
69372W        W61296   4.283   7.287  51.523
69373W        W61297  28.703  38.724  53.359
69374W        W61298  17.247   6.788  50.129
69375W        W61299  11.769  24.753  52.437
69376W        W61300   0.787   6.767  52.416
69377W        W61301  38.695  30.231  51.073
69378W        W61302  30.214  33.738  51.053
69379W        W61303  31.720  16.760  52.405
69380W        W61304  18.745  31.712  51.986
69381W        W61305  12.240   0.273  50.595
69382W        W61306  39.692  23.739  53.794
69383W        W61307  23.742  19.765  51.969
69384W        W61308  37.233   7.268  53.800
69385W        W61309   8.258   3.765  49.685
69386W        W61310  20.746  30.205  51.499
69387W        W61311  29.202  15.252  52.406
69388W        W61312   5.281   9.279  52.445
69389W        W61313  25.742  34.240  50.586
69390W        W61314  13.246  13.232  51.067
69391W        W61315  28.742  13.277  50.620
69392W        W61316  30.748  15.271  51.521
69393W        W61317  47.175  29.232  51.528
69394W        W61318  39.235  37.715  52.411
69395W        W61319  12.741   2.768  49.696
69396W        W61320  41.228  44.684  51.075
69397W        W61321  41.192  32.719  53.321
69398W        W61322  45.711  29.238  52.869
69399W        W61323   3.771  36.690  53.788
69400W        W61324  40.228   8.778  53.815
69401W        W61325   7.248  18.244  53.335
69402W        W61326   4.765   1.759  51.504
69403W        W61327  29.738  42.200  50.122
69404W        W61328  43.182  29.217  51.078
69405W        W61329   8.764   4.767  52.862
69406W        W61330  12.731   2.257  49.704
69407W        W61331  10.252  28.215  51.050
69408W        W61332  15.772  41.219  52.403
69409W        W61333  29.219  25.750  52.872
69410W        W61334  39.228  42.694  50.597
69411W        W61335  32.717  39.212  52.899
69412W        W61336  20.261  42.212  49.688
69413W        W61337  18.257   9.759  49.672
69414W        W61338   6.282  41.704  53.321
69415W        W61339  35.713  30.743  50.577
69416W        W61340   8.748  21.714  53.322
69417W        W61341  14.238   5.258  50.610
69418W        W61342  46.693  25.718  49.700
69419W        W61343  46.718  40.189  53.321
69420W        W61344  14.240  21.226  51.963
69421W        W61345  38.730   2.763  51.535
69422W        W61346  11.755   9.777  51.068
69423W        W61347   0.785  19.253  53.802
69424W        W61348  20.739  38.201  52.874
69425W        W61349  15.730  12.763  51.071
69426W        W61350  34.738  41.700  51.035
69427W        W61351  45.213  25.753  52.432
69428W        W61352  46.214  44.219  52.871
69429W        W61353  32.238   6.786  51.494
69430W        W61354  40.724  47.718  53.781
69431W        W61355  24.717  11.747  50.600
69432W        W61356   8.253  12.762  53.319
69433W        W61357  26.215  35.736  52.867
69434W        W61358  17.758  25.248  49.667
69435W        W61359  18.751  46.719  52.424
69436W        W61360  33.737  40.692  53.772
69437W        W61361  46.224  12.756  50.162
69438W        W61362  33.702  17.742  50.588
69439W        W61363   7.764   1.259  51.047
69440W        W61364  17.228  26.235  51.963
69441W        W61365  24.214  48.191  53.316
69442W        W61366  18.746  15.765  50.610
69443W        W61367   8.256  48.214  50.611
69444W        W61368  32.229  45.184  50.596
69445W        W61369  37.716  18.740  52.894
69446W        W61370  17.229  23.233  51.044
69447W        W61371  31.743  39.730  50.619
69448W        W61372   2.278   5.786  52.862
69449W        W61373   5.290  24.749  53.355
69450W        W61374  43.711   7.742  53.317
69451W        W61375  31.241  23.221  49.674
69452W        W61376  12.277  15.257  51.493
69453W        W61377   6.256  44.219  51.497
69454W        W61378  21.746  41.696  50.165
69455W        W61379  15.735  39.711  51.040
69456W        W61380   9.262  28.710  53.786
69457W        W61381   1.274  27.717  52.890
69458W        W61382  37.731  17.752  51.073
69459W        W61383  34.716   4.765  51.503
69460W        W61384   9.782  39.723  53.804
69461W        W61385   8.777  47.691  53.321
69462W        W61386  40.190  24.712  51.962
69463W        W61387  38.212  13.744  52.870
69464W        W61388  31.742  35.696  51.044
69465W        W61389  13.764  26.708  49.684
69466W        W61390  34.698  45.198  50.623
69467W        W61391  19.748   0.274  53.331
69468W        W61392  35.710   7.745  53.777
69469W        W61393  38.717  42.219  51.045
69470W        W61394  14.240  34.237  49.710
69471W        W61395  44.193  35.197  50.121
69472W        W61396  42.201  37.712  52.891
69473W        W61397   2.274   2.767  49.666
69474W        W61398  25.244  32.243  50.163
69475W        W61399  20.251  12.244  49.672
69476W        W61400   6.281   4.278  51.975
69477W        W61401  30.711   0.774  50.162
69478W        W61402  47.201  43.210  50.165
69479W        W61403  26.751  18.263  51.967
69480W        W61404  41.212  42.701  53.360
69481W        W61405  13.763  12.734  51.037
69482W        W61406  42.216  32.720  51.948
69483W        W61407  29.718  28.721  52.893
69484W        W61408  33.235  28.212  52.445
69485W        W61409  32.715   0.781  51.980
69486W        W61410  36.235  42.220  50.600
69487W        W61411  23.717  16.244  50.164
69488W        W61412   4.292  45.184  52.411
69489W        W61413   0.256  16.237  50.155
69490W        W61414  23.260  20.229  49.666
69491W        W61415  19.223  19.221  51.040
69492W        W61416  11.768  33.227  53.354
69493W        W61417  43.188  19.244  49.703
69494W        W61418  43.187  24.749  51.959
69495W        W61419  27.733  24.740  53.331
69496W        W61420  46.711  40.200  51.051
69497W        W61421  24.248  30.746  53.334
69498W        W61422  36.235   1.750  52.883
69499W        W61423  46.212  26.742  51.526
69500W        W61424   2.275  33.724  53.354
69501W        W61425  44.684   2.293  50.590
69502W        W61426   9.246  39.710  50.148
69503W        W61427  39.216   9.738  52.420
69504W        W61428   4.775  24.748  52.868
69505W        W61429  33.726  39.732  51.955
69506W        W61430  40.192   9.274  49.696
69507W        W61431   2.295  14.727  51.953
69508W        W61432   4.749  44.211  50.147
69509W        W61433  45.720  29.243  49.665
69510W        W61434   5.286  13.258  52.884
69511W        W61435  28.204  28.214  51.074
69512W        W61436  47.720  36.717  50.142
69513W        W61437  18.727  21.236  52.422
69514W        W61438  31.215   7.259  52.436
69515W        W61439  11.737  13.233  52.419
69516W        W61440  44.197  38.232  53.787
69517W        W61441   9.744  36.690  52.413
69518W        W61442  43.187  38.694  51.968
69519W        W61443   6.755  15.234  51.504
69520W        W61444   9.761  35.232  52.422
69521W        W61445  40.696  15.264  53.318
69522W        W61446  37.218  27.243  53.350
69523W        W61447  15.767  38.701  52.419
69524W        W61448  48.175   8.279  51.970
69525W        W61449   4.784  20.227  49.681
69526W        W61450  35.724  11.764  53.792
69527W        W61451   2.292  21.239  50.586
69528W        W61452  13.728  16.231  53.350
69529W        W61453  26.719  44.192  52.406
69530W        W61454  12.269  44.222  49.700
69531W        W61455  34.225  48.198  50.165
69532W        W61456  30.726   6.776  50.131
69533W        W61457  28.712   8.775  50.137
69534W        W61458   3.261  30.707  51.946
69535W        W61459  45.222  16.272  51.494
69536W        W61460  25.229  47.680  53.323
69537W        W61461  13.241  28.210  49.676
69538W        W61462  46.188  40.208  53.338
69539W        W61463   5.258  44.698  52.448
69540W        W61464  33.226  44.223  50.604
69541W        W61465  29.235  29.252  51.527
69542W        W61466  21.747  39.226  53.797
69543W        W61467  37.735  20.741  51.491
69544W        W61468   5.770  13.238  51.049
69545W        W61469  45.212  28.748  50.612
69546W        W61470   4.792  16.730  50.149
69547W        W61471  24.227  28.721  50.121
69548W        W61472  22.229   2.756  53.792
69549W        W61473  20.252  42.713  50.590
69550W        W61474  34.715  22.243  52.446
69551W        W61475   8.754   2.761  53.792
69552W        W61476  32.204  15.727  51.054
69553W        W61477  35.199  24.742  49.668
69554W        W61478  26.733   9.258  51.495
69555W        W61479  42.725   7.779  52.898
69556W        W61480  32.733   1.766  52.885
69557W        W61481  26.253  18.223  52.870
69558W        W61482  34.697  39.189  50.144
69559W        W61483  20.236  20.233  53.321
69560W        W61484  31.201  15.740  49.690
69561W        W61485  18.758   6.750  53.345
69562W        W61486   6.783  25.254  51.523
69563W        W61487  40.220  46.695  50.154
69564W        W61488  23.231   9.262  51.075
69565W        W61489  15.769  46.211  51.975
69566W        W61490  34.206  40.688  51.980
69567W        W61491  30.220  35.228  50.126
69568W        W61492  28.703  34.222  50.605
69569W        W61493   3.252  18.720  50.153
69570W        W61494  24.733  22.742  49.698
69571W        W61495  27.216  20.718  52.904
69572W        W61496  10.737   6.745  53.816
69573W        W61497  11.254  35.214  49.699
69574W        W61498  30.728   3.791  53.346
69575W        W61499  11.741   7.739  50.141
69576W        W61500  23.221  23.253  52.870
69577W        W61501   8.277  24.742  49.672
69578W        W61502  29.712   8.252  52.403
69579W        W61503   1.760   1.794  52.871
69580W        W61504  26.726  27.229  51.970
69581W        W61505  10.253  41.201  51.991
69582W        W61506  22.245  48.189  53.319
69583W        W61507  19.267  30.201  53.790
69584W        W61508  44.704  38.715  52.864
69585W        W61509  23.727  15.239  50.135
69586W        W61510  17.223  38.192  51.514
69587W        W61511  28.731  44.722  50.618
69588W        W61512  17.268  13.734  52.425
69589W        W61513  29.739  22.714  51.490
69590W        W61514  31.703   9.753  49.691
69591W        W61515  23.234  13.256  51.532
69592W        W61516  19.234  44.182  51.505
69593W        W61517  30.240   7.276  50.150
69594W        W61518   0.262  24.244  52.418
69595W        W61519  44.679  31.737  51.981
69596W        W61520  27.238   0.790  50.124
69597W        W61521  19.722  26.742  51.513
69598W        W61522  23.733  14.270  53.794
69599W        W61523  17.733  23.729  50.156
69600W        W61524  22.239  13.235  51.961
69601W        W61525  11.765  45.218  51.981
69602W        W61526  13.729  41.720  51.501
69603W        W61527  47.720  24.747  51.502
69604W        W61528  37.732  45.213  53.342
69605W        W61529  32.725  27.224  51.505
69606W        W61530  16.233  23.714  53.322
69607W        W61531  17.756  22.715  50.591
69608W        W61532   7.775  13.756  50.607
69609W        W61533   9.767  41.705  52.865
69610W        W61534   9.252   7.278  52.425
69611W        W61535   3.773  16.742  51.978
69612W        W61536  28.708  39.216  51.966
69613W        W61537  46.199  18.228  51.047
69614W        W61538  45.717  39.728  51.954
69615W        W61539  34.710  23.712  49.698
69616W        W61540  24.251  28.209  50.614
69617W        W61541  10.780  11.249  50.127
69618W        W61542  39.186  14.733  53.343
69619W        W61543  19.721  32.228  52.890
69620W        W61544  47.212  29.240  53.355
69621W        W61545  12.240  37.229  51.071
69622W        W61546  27.210  20.762  52.425
69623W        W61547  23.733  47.197  53.326
69624W        W61548  35.232  14.256  52.874
69625W        W61549  21.735  23.721  51.046
69626W        W61550  10.739   5.788  52.444
69627W        W61551  38.202  40.194  53.331
69628W        W61552   7.779   7.259  53.805
69629W        W61553  13.740  20.756  51.066
69630W        W61554  37.721  27.748  52.421
69631W        W61555  30.220   5.750  52.870
69632W        W61556  41.727  13.274  50.130
69633W        W61557  17.732  15.770  52.412
69634W        W61558  15.236  20.254  50.621
69635W        W61559  16.772  34.700  50.607
69636W        W61560  39.219   6.750  53.772
69637W        W61561  48.180  26.717  50.136
69638W        W61562  24.226  30.225  53.316
69639W        W61563  39.719  40.216  50.587
69640W        W61564  17.222  31.746  51.517
69641W        W61565  41.200  17.768  50.587
69642W        W61566  43.192  19.753  50.157
69643W        W61567  33.226  29.214  53.356
69644W        W61568   0.784  47.213  49.673
69645W        W61569  26.754  45.185  49.693
69646W        W61570   8.272  47.719  52.868
69647W        W61571  28.722   0.799  50.621
69648W        W61572   3.767  39.705  53.353
69649W        W61573  42.724  34.704  50.127
69650W        W61574  19.232  20.242  53.817
69651W        W61575  13.739  36.736  51.972
69652W        W61576  42.711  47.686  53.785
69653W        W61577  34.716  45.181  49.705
69654W        W61578  33.726  25.209  51.077
69655W        W61579  30.207  47.678  51.961
69656W        W61580  43.208  45.713  51.513
69657W        W61581  21.217   0.299  51.056
69658W        W61582   5.268  44.199  51.061
69659W        W61583  45.221  30.227  51.523
69660W        W61584  10.273  11.261  53.317
69661W        W61585  24.742  13.764  51.960
69662W        W61586  30.206  40.719  51.525
69663W        W61587  37.715  12.247  51.036
69664W        W61588   6.279  11.238  50.156
69665W        W61589   8.275  13.753  53.805
69666W        W61590   2.784  25.240  52.878
69667W        W61591  15.271  39.206  53.352
69668W        W61592  31.716   2.762  53.805
69669W        W61593  40.208   9.740  51.951
69670W        W61594  33.732  41.206  52.423
69671W        W61595  34.203  20.765  49.694
69672W        W61596  25.215   6.251  51.968
69673W        W61597  41.204  14.752  51.046
69674W        W61598  18.242  35.197  53.326
69675W        W61599  17.261   0.796  51.500
69676W        W61600  41.701  14.266  49.708
69677W        W61601  18.738  26.721  50.136
69678W        W61602  44.189  47.680  51.978
69679W        W61603   7.786  25.230  50.156
69680W        W61604  35.699  32.230  51.513
69681W        W61605  46.174  19.752  51.075
69682W        W61606   7.252  10.245  52.875
69683W        W61607  25.745  16.731  50.610
69684W        W61608  21.250  21.747  52.406
69685W        W61609  33.234  33.200  50.603
69686W        W61610  13.759  19.720  49.704
69687W        W61611   4.755  36.215  53.783
69688W        W61612   9.269  13.774  52.426
69689W        W61613  41.708   2.261  50.122
69690W        W61614  30.222  26.709  50.618
69691W        W61615  44.184  14.774  50.607
69692W        W61616  43.709  44.194  51.048
69693W        W61617  45.676  28.206  51.043
69694W        W61618  31.722  33.714  53.802
69695W        W61619  16.753  24.246  51.992
69696W        W61620  33.707  23.737  50.603
69697W        W61621  12.732  44.680  53.340
69698W        W61622  11.780   1.761  52.886
69699W        W61623   3.778  15.230  53.779
69700W        W61624   8.764  33.707  51.989
69701W        W61625  32.733  14.228  51.983
69702W        W61626   3.275   3.770  51.520
69703W        W61627  18.264  22.247  50.164
69704W        W61628  44.696  20.718  49.681
69705W        W61629  25.744  38.701  53.324
69706W        W61630   7.754  31.735  53.342
69707W        W61631  46.688   3.286  53.783
69708W        W61632  26.237  37.205  53.787
69709W        W61633  32.246  34.206  50.126
69710W        W61634   5.776   1.789  52.901
69711W        W61635   2.746   7.744  50.163
69712W        W61636  32.739  43.688  53.343
69713W        W61637  17.234  37.206  52.862
69714W        W61638  15.766  45.183  52.424
69715W        W61639  45.715  10.746  50.137
69716W        W61640  14.768  38.717  49.686
69717W        W61641  25.751  18.744  52.864
69718W        W61642  39.722  28.711  52.896
69719W        W61643  10.263  12.276  49.703
69720W        W61644   9.771  23.728  50.122
69721W        W61645   1.773  43.221  50.125
69722W        W61646  30.744  10.751  49.699
69723W        W61647  38.695  26.231  51.074
69724W        W61648  13.255  43.197  51.972
69725W        W61649  12.239  37.710  52.409
69726W        W61650  37.223  32.722  53.813
69727W        W61651  31.724  17.754  51.054
69728W        W61652  21.232  12.267  52.427
69729W        W61653  30.745  28.742  53.794
69730W        W61654  22.722   2.764  53.794
69731W        W61655  46.207   7.285  50.618
69732W        W61656   9.242  18.257  51.977
69733W        W61657  18.741   9.750  52.870
69734W        W61658  26.745  24.716  51.037
69735W        W61659  12.776  42.218  53.360
69736W        W61660  25.729   4.268  53.795
69737W        W61661  35.741  16.249  50.159
69738W        W61662  26.248  12.242  52.884
69739W        W61663  16.727  28.245  50.600
69740W        W61664  15.741  29.251  52.432
69741W        W61665  23.734  45.679  53.808
69742W        W61666  36.710  43.203  53.782
69743W        W61667  37.736  11.268  49.698
69744W        W61668  34.722   6.762  52.439
69745W        W61669   9.282  33.222  51.503
69746W        W61670   6.245  42.219  50.580
69747W        W61671  41.227   6.774  51.079
69748W        W61672  27.251  44.178  51.494
69749W        W61673   7.763  21.730  49.708
69750W        W61674  16.760  18.269  51.522
69751W        W61675  41.189  27.241  50.583
69752W        W61676  42.218  26.248  49.679
69753W        W61677   1.259  34.195  50.142
69754W        W61678  39.687   2.785  53.795
69755W        W61679  22.752  24.747  51.040
69756W        W61680  14.273  33.242  49.672
69757W        W61681  18.734   5.288  53.323
69758W        W61682  23.730  21.239  51.036
69759W        W61683  11.269  13.739  50.606
69760W        W61684  15.240  16.768  53.777
69761W        W61685  24.732  11.269  50.122
69762W        W61686  14.275  34.207  52.432
69763W        W61687  31.747  26.750  50.166
69764W        W61688  38.720  38.215  51.954
69765W        W61689  22.238  18.762  52.890
69766W        W61690  32.709  23.745  51.067
69767W        W61691  44.684  10.246  50.163
69768W        W61692  10.237   8.246  52.432
69769W        W61693  27.235  40.214  50.593
69770W        W61694   2.763  42.695  53.791
69771W        W61695  24.244  17.754  52.418
69772W        W61696  27.224   6.753  49.692
69773W        W61697  11.733  25.238  51.040
69774W        W61698  18.738  39.225  51.061
69775W        W61699  44.691  37.238  50.606
69776W        W61700  35.693  38.222  49.686
69777W        W61701  15.739  20.260  49.677
69778W        W61702   0.769  10.253  52.441
69779W        W61703  47.721   8.242  50.601
69780W        W61704  19.242   9.769  52.871
69781W        W61705  22.232  47.687  49.673
69782W        W61706  28.226  30.736  51.063
69783W        W61707  12.778  29.210  50.591
69784W        W61708   3.765  45.187  49.684
69785W        W61709  31.224  38.687  53.807
69786W        W61710  38.213  18.723  51.969
69787W        W61711  29.208   1.251  51.514
69788W        W61712  46.685   8.761  53.347
69789W        W61713  31.702  27.243  51.977
69790W        W61714  36.221  19.762  49.667
69791W        W61715  10.749  40.221  53.324
69792W        W61716   9.782   2.278  50.123
69793W        W61717  26.231  23.247  50.121
69794W        W61718  21.262  33.222  53.808
69795W        W61719  45.716  23.731  53.338
69796W        W61720  21.744  12.775  49.707
69797W        W61721  34.209  27.727  51.068
69798W        W61722  39.227  24.730  50.132
69799W        W61723  43.713  27.742  52.427
69800W        W61724  26.239  40.213  51.496
69801W        W61725  21.263  25.241  53.346
69802W        W61726  17.223  28.749  49.665
69803W        W61727  35.702   7.773  51.518
69804W        W61728  44.204  32.713  50.123
69805W        W61729   2.761  25.711  52.433
69806W        W61730  12.746   8.754  50.143
69807W        W61731  11.734  26.239  51.961
69808W        W61732  36.192  30.731  53.780
69809W        W61733  15.742  24.710  49.678
69810W        W61734  34.696  30.720  52.896
69811W        W61735  47.195  25.255  51.975
69812W        W61736  31.201   0.757  52.892
69813W        W61737   3.290  12.730  49.702
69814W        W61738  37.719  25.238  53.781
69815W        W61739  12.262   5.768  50.126
69816W        W61740  29.220  13.770  51.064
69817W        W61741  22.757  29.701  53.342
69818W        W61742   0.762   9.778  50.599
69819W        W61743  34.739  13.760  51.524
69820W        W61744  26.723  26.725  53.357
69821W        W61745   1.783  40.184  50.139
69822W        W61746  32.701   6.267  49.683
69823W        W61747  27.723  43.202  53.795
69824W        W61748  24.250  10.237  51.949
69825W        W61749  37.696  17.247  52.863
69826W        W61750   4.289   5.249  51.044
69827W        W61751  47.706  40.701  50.159
69828W        W61752  47.705  24.725  53.353
69829W        W61753  28.741  32.197  53.774
69830W        W61754  41.219  38.705  52.418
69831W        W61755  15.231  42.729  52.437
69832W        W61756  47.710  35.718  51.526
69833W        W61757  12.740  12.242  52.405
69834W        W61758  41.185  40.699  50.597
69835W        W61759  43.705   6.260  49.679
69836W        W61760   6.744  36.722  50.141
69837W        W61761  11.266  39.731  53.343
69838W        W61762   3.746  10.779  53.778
69839W        W61763  32.719  48.214  50.617
69840W        W61764  16.732  13.730  53.354
69841W        W61765  34.195  24.749  51.527
69842W        W61766  30.211  38.688  50.582
69843W        W61767  10.263  40.227  51.492
69844W        W61768  28.219  44.681  49.687
69845W        W61769   8.744  35.733  52.413
69846W        W61770   1.269   2.782  51.992
69847W        W61771  17.235  44.716  51.076
69848W        W61772  29.242  21.239  53.784
69849W        W61773  20.225  35.230  53.335
69850W        W61774  44.707  46.197  51.946
69851W        W61775  13.735  20.253  52.886
69852W        W61776  16.764   4.763  50.602
69853W        W61777  29.223  35.740  50.581
69854W        W61778   8.263  27.753  49.675
69855W        W61779  23.235  45.215  52.444
69856W        W61780   2.786   1.262  53.347
69857W        W61781  21.746  10.771  52.895
69858W        W61782  15.263  42.725  50.165
69859W        W61783  37.721   4.776  53.330
69860W        W61784  31.215  10.260  51.506
69861W        W61785  46.691  20.254  50.587
69862W        W61786  11.762  17.745  50.620
69863W        W61787  39.689  43.715  53.335
69864W        W61788  19.763   0.761  49.689
69865W        W61789  36.217  28.216  49.680
69866W        W61790  27.238  48.209  52.870
69867W        W61791   6.754  17.740  51.954
69868W        W61792   6.740   5.285  53.356
69869W        W61793   6.276   3.771  52.432
69870W        W61794  20.758  35.738  49.668
69871W        W61795  39.211  38.702  51.493
69872W        W61796  17.236  25.210  51.491
69873W        W61797  15.232   9.734  50.137
69874W        W61798  11.771  48.211  51.509
69875W        W61799  13.265   8.780  50.153
69876W        W61800  28.709   1.258  53.347
69877W        W61801   9.271  14.730  49.696
69878W        W61802  46.179  43.713  50.619
69879W        W61803  45.697  27.251  53.326
69880W        W61804  17.261   3.273  51.079
69881W        W61805  25.255   6.290  50.611
69882W        W61806  40.700  42.716  53.781
69883W        W61807  45.681  17.251  51.980
69884W        W61808  42.229  11.280  52.437
69885W        W61809   7.771  29.227  53.325
69886W        W61810  17.222  39.217  53.792
69887W        W61811  40.184  18.724  49.704
69888W        W61812  22.738  44.212  53.791
69889W        W61813   9.764  28.225  49.668
69890W        W61814  39.205  47.207  50.604
69891W        W61815  13.232  33.206  51.968
69892W        W61816   8.777  13.262  50.128
69893W        W61817  18.259  27.205  51.953
69894W        W61818  13.237  11.733  51.034
69895W        W61819  47.208  26.741  49.674
69896W        W61820  42.724   0.283  49.691
69897W        W61821   2.283  10.758  49.691
69898W        W61822  36.706  17.752  52.900
69899W        W61823   9.251  43.182  51.037
69900W        W61824  35.716   5.754  50.152
69901W        W61825  34.196   4.278  49.679
69902W        W61826   2.785  40.702  52.420
69903W        W61827   7.776  42.193  53.336
69904W        W61828  36.717  21.254  49.693
69905W        W61829  32.217  29.713  50.597
69906W        W61830  26.756   5.263  51.041
69907W        W61831  25.214  14.238  51.055
69908W        W61832   0.291  12.754  51.063
69909W        W61833  18.725   8.765  49.666
69910W        W61834  43.187  14.253  52.901
69911W        W61835   0.796   3.747  50.157
69912W        W61836  17.231  38.213  51.071
69913W        W61837   2.287  28.730  50.166
69914W        W61838  14.240   6.760  50.614
69915W        W61839   0.784  45.213  51.073
69916W        W61840   7.240  16.732  51.495
69917W        W61841  28.706  31.707  52.416
69918W        W61842  19.729  39.699  52.421
69919W        W61843  42.708  25.222  51.514
69920W        W61844   8.266  35.216  53.781
69921W        W61845  34.219  41.689  50.127
69922W        W61846   6.755  28.712  53.331
69923W        W61847   8.765  19.736  52.863
69924W        W61848  32.708  24.212  53.355
69925W        W61849   7.765  16.240  50.610
69926W        W61850  24.739  15.743  52.869
69927W        W61851  23.217  35.223  53.811
69928W        W61852  32.219  43.204  51.961
69929W        W61853   6.779   1.772  49.677
69930W        W61854  30.741  39.733  53.330
69931W        W61855  24.244  34.243  52.403
69932W        W61856  28.225   3.268  49.667
69933W        W61857  38.225   9.737  53.795
69934W        W61858  16.766  34.694  53.341
69935W        W61859  36.699  26.708  50.143
69936W        W61860  25.238  37.230  49.704
69937W        W61861  20.222  12.259  53.775
69938W        W61862  35.725  16.761  53.778
69939W        W61863  36.731  27.708  49.706
69940W        W61864   7.777  27.732  53.322
69941W        W61865  21.742  36.701  50.129
69942W        W61866  17.244  33.739  51.061
69943W        W61867  23.253  33.234  53.321
69944W        W61868  11.236  36.725  53.324
69945W        W61869  25.735  43.705  50.160
69946W        W61870  36.230  19.766  50.617
69947W        W61871  26.232  26.712  50.151
69948W        W61872  17.255  12.765  53.354
69949W        W61873   4.250  18.754  53.341
69950W        W61874  41.686   6.285  53.332
69951W        W61875   0.761   3.259  53.358
69952W        W61876  45.713   2.759  50.153
69953W        W61877   9.783  21.732  52.430
69954W        W61878  25.728  22.745  51.037
69955W        W61879  40.190  15.750  51.967
69956W        W61880  12.738  18.743  53.791
69957W        W61881  26.250  10.246  52.408
69958W        W61882  12.764  44.684  52.867
69959W        W61883  40.688  26.226  52.871
69960W        W61884   8.267   4.248  50.605
69961W        W61885  13.746  28.706  50.128
69962W        W61886  33.707  46.218  50.147
69963W        W61887  11.264   8.261  51.063
69964W        W61888  21.261  26.220  50.158
69965W        W61889  41.194   4.273  53.802
69966W        W61890  10.276  14.241  49.677
69967W        W61891  17.758  21.732  51.510
69968W        W61892  27.716  27.236  53.337
69969W        W61893  17.238   2.787  51.974
69970W        W61894   7.281  13.744  50.609
69971W        W61895  22.242  13.737  52.414
69972W        W61896  26.725  40.201  50.164
69973W        W61897  41.709  17.724  50.164
69974W        W61898  15.267   5.741  50.591
69975W        W61899  45.682  16.755  52.430
69976W        W61900  26.738  37.691  50.123
69977W        W61901  31.699   8.248  51.947
69978W        W61902  46.715  47.184  50.164
69979W        W61903  15.761   9.241  53.325
69980W        W61904   7.241   7.755  53.779
69981W        W61905   0.770  28.220  51.079
69982W        W61906  22.719  29.237  53.816
69983W        W61907  46.187  23.227  51.500
69984W        W61908  25.219  39.226  52.890
69985W        W61909  33.232  27.227  52.884
69986W        W61910  17.231  34.217  52.425
69987W        W61911  42.195  33.735  51.037
69988W        W61912  36.728  43.211  53.355
69989W        W61913  47.691  28.731  52.419
69990W        W61914  39.224  26.244  50.581
69991W        W61915  35.200  33.695  51.949
69992W        W61916  45.205  42.705  51.497
69993W        W61917   6.241  43.198  50.615
69994W        W61918  14.735  41.185  52.422
69995W        W61919  27.742  10.281  51.057
69996W        W61920  39.209  46.208  51.049
69997W        W61921   4.749  16.251  53.802
69998W        W61922  45.678   0.797  50.135
69999W        W61923  44.199  44.194  52.863
70000W        W61924  16.735  48.200  50.604
70001W        W61925  37.697   6.752  49.687
70002W        W61926  48.187  48.210  53.316
70003W        W61927  31.248  48.183  51.958
70004W        W61928  47.188  47.696  53.785
70005W        W61929  31.744  35.738  52.423
70006W        W61930  23.718   8.769  52.887
70007W        W61931   0.760  10.266  51.049
70008W        W61932  21.715  30.734  53.788
70009W        W61933  22.718  38.716  53.340
70010W        W61934  47.203   2.769  49.681
70011W        W61935  47.210  39.709  53.342
70012W        W61936  18.257  18.262  51.963
70013W        W61937  41.724  18.741  51.514
70014W        W61938   4.748  35.694  52.442
70015W        W61939  31.705  28.244  51.062
70016W        W61940   6.252  47.194  52.872
70017W        W61941  34.197   3.257  52.431
70018W        W61942   1.294   3.269  53.319
70019W        W61943  34.234  37.211  50.610
70020W        W61944  16.272   8.269  52.411
70021W        W61945  40.228  33.211  50.128
70022W        W61946  40.212  10.275  52.885
70023W        W61947  19.219   6.763  51.073
70024W        W61948  40.230  13.228  53.774
70025W        W61949  41.704  39.196  51.524
70026W        W61950  33.695  47.714  53.317
70027W        W61951  19.220   6.272  53.813
70028W        W61952  36.700  13.236  53.327
70029W        W61953  48.191   2.757  51.534
70030W        W61954  36.196  26.750  51.970
70031W        W61955  11.270  22.760  52.874
70032W        W61956  40.208  27.733  53.783
70033W        W61957  12.270  40.200  52.887
70034W        W61958  21.235  22.730  51.987
70035W        W61959  33.202  45.203  51.034
70036W        W61960  18.759  17.234  50.608
70037W        W61961  26.230  23.229  51.058
70038W        W61962  46.685  17.741  49.705
70039W        W61963  16.272  46.197  49.671
70040W        W61964  47.717  13.760  51.956
70041W        W61965  25.742  13.240  52.424
70042W        W61966  27.220  43.204  51.954
70043W        W61967   1.276  26.744  50.612
70044W        W61968  48.200  30.225  52.421
70045W        W61969   3.252  17.770  53.334
70046W        W61970  29.205  31.706  51.966
70047W        W61971   6.271   5.290  53.356
70048W        W61972  19.229  27.724  51.067
70049W        W61973  15.769   4.760  51.534
70050W        W61974   7.741   1.766  50.584
70051W        W61975   3.752   1.795  50.126
70052W        W61976  39.728  32.211  50.599
70053W        W61977  38.715  24.248  50.597
70054W        W61978  14.256   7.739  52.889
70055W        W61979  34.704  14.251  51.035
70056W        W61980  46.721  31.724  51.061
70057W        W61981   0.278  10.736  51.495
70058W        W61982  46.708   8.773  52.880
70059W        W61983   2.254   6.745  51.530
70060W        W61984   2.273  40.202  52.874
70061W        W61985   4.244  44.201  53.794
70062W        W61986  31.225  28.223  51.972
70063W        W61987   5.256   0.251  50.129
70064W        W61988  12.234  19.753  51.043
70065W        W61989   3.787  35.193  50.160
70066W        W61990  43.682  13.744  52.403
70067W        W61991  40.683  26.249  51.515
70068W        W61992  14.231  41.706  50.585
70069W        W61993  18.743  24.214  51.041
70070W        W61994  11.280  23.758  53.326
70071W        W61995  36.691  45.182  51.079
70072W        W61996   3.763  43.716  51.053
70073W        W61997  31.220  37.224  51.511
70074W        W61998  19.221  28.749  50.125
70075W        W61999   4.287   3.748  51.053
70076W        W62000  24.233  27.214  50.121
70077W        W62001  29.205  12.232  51.525
70078W        W62002  33.723  41.220  53.779
70079W        W62003  24.250  36.203  51.490
70080W        W62004  19.266   3.767  51.991
70081W        W62005  38.196  45.685  50.599
70082W        W62006  39.229  42.709  51.990
70083W        W62007  26.732  11.255  53.811
70084W        W62008  41.190  43.198  50.160
70085W        W62009  44.709  37.191  51.507
70086W        W62010  26.213  48.171  51.039
70087W        W62011  43.188  25.225  53.341
70088W        W62012  29.230  33.743  52.875
70089W        W62013  10.236   5.748  52.871
70090W        W62014  36.230  34.237  53.813
70091W        W62015  24.754  15.232  52.447
70092W        W62016  44.186   2.296  52.860
70093W        W62017   6.746   8.237  51.061
70094W        W62018  18.749  42.198  51.064
70095W        W62019  29.749  19.244  52.896
70096W        W62020  43.228  20.237  53.357
70097W        W62021  18.250   9.761  50.607
70098W        W62022  21.733  17.254  53.787
70099W        W62023   6.770  14.268  51.963
70100W        W62024  39.710  38.727  51.039
70101W        W62025  16.733  34.708  52.423
70102W        W62026   4.247  48.193  51.060
70103W        W62027  39.217  15.230  51.059
70104W        W62028  28.752  17.746  51.511
70105W        W62029  31.212  47.186  53.325
70106W        W62030  20.220  31.239  51.035
70107W        W62031  14.260  47.186  52.441
70108W        W62032  19.248   5.787  51.957
70109W        W62033  35.708   2.766  51.066
70110W        W62034  40.718  19.734  51.525
70111W        W62035  41.191  27.222  52.448
70112W        W62036  24.729   8.259  50.582
70113W        W62037  27.213   6.255  53.809
70114W        W62038  16.726   8.268  50.601
70115W        W62039  40.204  26.708  52.899
70116W        W62040  38.193  12.247  49.680
70117W        W62041  40.199  14.256  49.668
70118W        W62042   9.755  13.250  52.434
70119W        W62043  37.235  34.740  50.584
70120W        W62044   5.285  42.702  49.669
70121W        W62045   7.753  45.685  51.533
70122W        W62046  24.715   5.282  50.601
70123W        W62047  33.203  47.713  50.132
70124W        W62048   9.766  33.697  52.403
70125W        W62049  14.755   1.292  50.586
70126W        W62050  12.751   0.794  51.037
70127W        W62051   8.282   2.290  51.990
70128W        W62052  19.248  33.232  50.583
70129W        W62053   3.775  27.735  51.527
70130W        W62054   2.778  26.749  53.333
70131W        W62055  14.767  46.185  49.691
70132W        W62056  46.223  35.232  53.783
70133W        W62057  15.244  16.733  51.962
70134W        W62058   0.784  12.778  51.034
70135W        W62059  39.196  15.755  52.878
70136W        W62060  31.708  16.267  52.428
70137W        W62061  37.721  23.759  51.492
70138W        W62062  36.235   0.288  52.413
70139W        W62063  29.703  27.229  51.498
70140W        W62064  35.692  23.241  53.345
70141W        W62065  30.223   3.790  52.413
70142W        W62066  26.226   7.752  53.783
70143W        W62067  42.181  46.713  50.145
70144W        W62068   7.246  26.208  53.803
70145W        W62069  11.240   9.777  53.777
70146W        W62070  34.206  15.233  50.605
70147W        W62071   7.777  42.722  51.045
70148W        W62072  27.215  11.745  52.889
70149W        W62073  21.716  29.746  51.514
70150W        W62074  29.222   8.265  50.612
70151W        W62075  21.241   2.765  51.053
70152W        W62076   3.759  40.185  51.511
70153W        W62077  24.249   3.761  51.041
70154W        W62078   2.263   2.254  50.150
70155W        W62079  36.694  46.716  52.885
70156W        W62080  34.719  13.754  49.690
70157W        W62081  36.215   9.261  52.889
70158W        W62082  10.752  15.765  50.155
70159W        W62083   7.771  33.735  51.951
70160W        W62084  43.225  16.753  51.522
70161W        W62085  17.753  41.232  52.428
70162W        W62086  20.226   9.252  50.597
70163W        W62087  34.212  14.747  51.069
70164W        W62088  30.719  17.754  52.893
70165W        W62089  33.700   2.762  53.347
70166W        W62090  39.724  31.733  52.868
70167W        W62091  45.690  37.209  51.498
70168W        W62092  44.206  12.739  51.047
70169W        W62093   7.264  33.219  52.877
70170W        W62094  36.694  17.266  49.691
70171W        W62095  19.224   9.283  53.775
70172W        W62096  39.211  38.732  49.690
70173W        W62097  42.189   6.286  53.345
70174W        W62098  33.236  10.781  52.869
70175W        W62099   8.268  48.174  50.132
70176W        W62100  18.765  35.194  52.426
70177W        W62101  32.700   7.260  50.163
70178W        W62102  26.238  20.259  52.861
70179W        W62103  30.721   5.772  51.970
70180W        W62104  12.769  35.205  50.158
70181W        W62105  20.754  34.239  52.429
70182W        W62106  45.197  29.212  51.502
70183W        W62107  31.209   6.758  51.037
70184W        W62108  44.200  21.238  52.877
70185W        W62109  24.250  26.731  50.610
70186W        W62110  12.255   5.268  53.785
70187W        W62111   8.257  34.237  50.123
70188W        W62112  44.688  27.753  50.147
70189W        W62113   6.245  48.213  52.438
70190W        W62114  35.695  29.236  52.889
70191W        W62115  19.767   0.260  52.862
70192W        W62116   9.252   8.262  50.621
70193W        W62117  30.229   3.750  50.164
70194W        W62118  11.249  27.707  52.901
70195W        W62119   3.778  13.767  52.423
70196W        W62120   7.766   0.262  50.129
70197W        W62121   3.289   4.767  51.508
70198W        W62122  31.698  16.754  52.881
70199W        W62123  25.730  47.195  50.606
70200W        W62124  37.218   0.760  51.056
70201W        W62125   4.766   8.250  52.429
70202W        W62126  21.219  16.252  50.149
70203W        W62127  41.718  15.260  52.879
70204W        W62128   3.273  13.268  52.421
70205W        W62129  47.703  15.229  50.612
70206W        W62130  10.779  36.207  51.532
70207W        W62131  17.755  17.257  50.584
70208W        W62132  33.240  40.202  52.421
70209W        W62133  36.200  37.211  50.594
70210W        W62134  38.212   9.757  49.694
70211W        W62135  35.706  27.719  51.947
70212W        W62136  26.218  45.718  49.687
70213W        W62137  17.754  36.231  50.139
70214W        W62138  33.723  12.232  52.433
70215W        W62139  23.247  26.749  52.441
70216W        W62140  15.226  12.768  51.965
70217W        W62141   5.790  38.235  51.045
70218W        W62142  11.278   2.254  50.138
70219W        W62143  32.735   9.281  52.884
70220W        W62144  17.766  16.254  50.135
70221W        W62145  29.745  20.723  50.135
70222W        W62146   1.783  44.214  51.052
70223W        W62147  15.247  15.770  50.583
70224W        W62148  20.228  46.703  50.580
70225W        W62149  37.711  24.730  53.337
70226W        W62150  33.205  32.715  51.533
70227W        W62151  31.231  11.780  50.600
70228W        W62152   7.786  17.229  51.506
70229W        W62153  39.700  47.683  51.970
70230W        W62154   7.786   1.250  49.672
70231W        W62155  12.735  20.259  52.894
70232W        W62156  27.715   9.753  53.784
70233W        W62157   9.270  38.734  51.956
70234W        W62158  14.268  42.194  51.054
70235W        W62159  18.763  18.235  53.340
70236W        W62160  23.746   5.779  51.533
70237W        W62161  16.733   5.753  51.955
70238W        W62162  31.224  40.690  49.671
70239W        W62163  35.735   5.762  51.948
70240W        W62164  23.714  25.237  50.589
70241W        W62165   0.258  38.719  49.691
70242W        W62166  19.725  28.726  50.596
70243W        W62167  43.698  15.252  53.787
70244W        W62168   6.755  40.708  51.512
70245W        W62169  29.709   1.796  53.330
70246W        W62170   2.268  17.725  51.524
70247W        W62171  19.223   8.270  53.806
70248W        W62172  40.230  32.242  51.966
70249W        W62173  20.225  21.233  49.702
70250W        W62174  31.738  15.271  53.785
70251W        W62175  41.696  43.707  51.079
70252W        W62176  37.705  47.199  53.337
70253W        W62177  23.736   4.747  49.671
70254W        W62178  31.246  22.724  53.787
70255W        W62179  45.180  30.741  50.616
70256W        W62180  46.679  31.215  51.038
70257W        W62181   5.257  14.273  52.435
70258W        W62182  42.700  12.776  50.122
70259W        W62183  33.712  48.207  50.132
70260W        W62184  37.725   0.781  51.520
70261W        W62185  15.248  15.761  51.077
70262W        W62186  26.738  27.223  51.059
70263W        W62187  41.724  13.269  53.317
70264W        W62188  45.704  45.202  53.350
70265W        W62189  15.248  25.756  51.053
70266W        W62190  35.207  21.223  51.054
70267W        W62191  22.228  33.228  52.417
70268W        W62192  34.725  31.213  53.809
70269W        W62193  46.680   7.248  53.792
70270W        W62194  23.230  35.222  52.881
70271W        W62195  16.254  17.728  51.056
70272W        W62196  43.680  16.237  49.674
70273W        W62197  28.713  23.725  50.136
70274W        W62198  11.778  36.695  50.163
70275W        W62199  19.722  39.194  51.526
70276W        W62200  47.672  37.696  51.987
70277W        W62201  40.224   2.277  50.162
70278W        W62202   8.278   0.771  52.436
70279W        W62203  32.734  41.197  53.328
70280W        W62204  47.717  11.280  50.588
70281W        W62205  45.176  47.717  53.790
70282W        W62206  22.220  10.259  51.520
70283W        W62207  17.757  41.709  49.682
70284W        W62208  38.222  31.741  50.157
70285W        W62209  31.705  31.201  49.689
70286W        W62210   2.766  33.225  53.782
70287W        W62211  16.740  10.758  53.785
70288W        W62212  46.197  19.234  49.683
70289W        W62213  13.255  13.735  51.043
70290W        W62214  43.222  40.697  50.161
70291W        W62215  36.223  10.246  51.520
70292W        W62216  15.267  35.699  51.950
70293W        W62217  14.729  33.218  50.589
70294W        W62218  19.747  16.268  50.131
70295W        W62219  30.203  18.263  53.335
70296W        W62220  31.210  26.221  52.413
70297W        W62221  21.241  16.772  50.148
70298W        W62222  24.227  13.270  52.403
70299W        W62223  26.230  14.265  51.534
70300W        W62224  36.200  22.232  51.491
70301W        W62225   8.263  12.279  50.165
70302W        W62226   0.276   9.258  49.685
70303W        W62227  10.269  26.252  51.979
70304W        W62228  19.224  17.239  50.136
70305W        W62229   8.245  23.723  50.144
70306W        W62230  30.245   3.264  51.495
70307W        W62231  16.747  42.684  49.665
70308W        W62232  30.222  41.211  49.694
70309W        W62233  31.228   9.251  51.036
70310W        W62234  42.224  34.703  52.421
70311W        W62235  33.214  22.735  51.077
70312W        W62236  41.199  45.178  50.611
70313W        W62237   5.268  27.711  50.138
70314W        W62238  31.214  39.221  53.786
70315W        W62239  37.697  10.773  50.577
70316W        W62240  45.199   9.235  52.870
70317W        W62241  36.206  17.231  52.403
70318W        W62242   6.280  24.223  50.616
70319W        W62243  19.746  18.742  51.530
70320W        W62244  19.743  27.716  51.976
70321W        W62245  26.739  47.191  52.407
70322W        W62246  36.736  26.212  52.413
70323W        W62247   4.287   9.751  50.589
70324W        W62248  47.677  46.689  49.676
70325W        W62249  44.679  37.226  49.686
70326W        W62250   6.270  21.229  52.440
70327W        W62251  35.208  28.740  53.774
70328W        W62252  13.736  13.263  52.888
70329W        W62253  29.728  14.743  52.431
70330W        W62254  46.702  45.198  51.058
70331W        W62255  24.214  46.193  49.709
70332W        W62256  45.202  35.735  51.054
70333W        W62257  21.239  30.709  52.885
70334W        W62258  45.213   3.284  49.681
70335W        W62259  25.251  42.718  49.702
70336W        W62260   6.754  12.232  52.425
70337W        W62261  36.231  15.253  50.586
70338W        W62262  35.194  36.713  53.802
70339W        W62263   9.776  38.210  52.441
70340W        W62264  20.739  36.205  50.582
70341W        W62265  40.189  33.728  53.335
70342W        W62266  28.252  11.250  53.802
70343W        W62267   5.788   9.752  51.965
70344W        W62268  28.712  39.713  53.785
70345W        W62269   9.766  46.177  51.037
70346W        W62270   1.792  27.731  51.069
70347W        W62271  27.242  27.708  50.151
70348W        W62272  31.698  47.187  50.128
70349W        W62273  11.232   1.288  52.895
70350W        W62274   3.765  33.235  53.802
70351W        W62275  16.261  34.232  53.785
70352W        W62276  10.745   1.760  52.880
70353W        W62277  21.755   6.746  50.162
70354W        W62278  22.226   1.254  53.807
70355W        W62279   4.744  45.221  53.788
70356W        W62280  36.705   4.266  51.949
70357W        W62281  37.191  28.746  51.063
70358W        W62282  12.279  46.206  51.075
70359W        W62283  18.748  26.749  53.343
70360W        W62284   3.776  15.740  52.888
70361W        W62285  28.733  33.196  51.490
70362W        W62286   4.790  28.235  50.160
70363W        W62287  13.268  19.727  52.428
70364W        W62288  19.729   8.754  50.618
70365W        W62289  39.224  45.177  49.669
70366W        W62290  12.740  10.748  51.962
70367W        W62291  22.753  42.183  51.975
70368W        W62292  25.739  45.192  50.596
70369W        W62293  41.719  31.746  51.074
70370W        W62294  30.736  24.213  50.613
70371W        W62295  38.204  48.181  51.050
70372W        W62296  31.727  13.744  49.698
70373W        W62297   1.755  37.213  52.435
70374W        W62298   9.766  40.709  52.887
70375W        W62299  42.725  42.712  51.046
70376W        W62300  27.749  11.257  49.686
70377W        W62301  30.715  39.198  52.415
70378W        W62302  23.720   9.762  50.141
70379W        W62303  25.738  23.258  51.519
70380W        W62304   6.778  18.748  51.968
70381W        W62305  33.232   5.749  51.985
70382W        W62306  13.241  43.217  50.162
70383W        W62307  14.243  33.704  53.793
70384W        W62308  43.714  37.691  51.983
70385W        W62309   9.748  45.698  51.531
70386W        W62310  45.189  35.213  51.987
70387W        W62311   6.268  30.729  50.602
70388W        W62312  12.253  47.212  50.124
70389W        W62313  45.723  13.241  51.528
70390W        W62314  30.721   9.252  53.805
70391W        W62315  12.740  17.237  49.707
70392W        W62316  28.709  37.720  51.953
70393W        W62317  22.257  38.687  51.054
70394W        W62318  37.238  38.206  52.873
70395W        W62319  15.249  43.718  53.809
70396W        W62320  26.734   8.772  51.046
70397W        W62321  35.241  37.735  51.051
70398W        W62322  18.233   8.253  51.985
70399W        W62323  42.723   3.759  53.786
70400W        W62324  31.730   5.274  51.980
70401W        W62325  19.220  42.208  49.677
70402W        W62326  18.752  34.737  52.862
70403W        W62327  28.242  40.204  51.970
70404W        W62328  26.255  12.265  51.973
70405W        W62329   5.749   9.276  53.334
70406W        W62330  21.733  45.720  52.446
70407W        W62331   5.790  12.732  50.165
70408W        W62332  22.748  44.207  50.138
70409W        W62333  25.731   1.772  51.492
70410W        W62334  11.257  17.248  49.667
70411W        W62335   2.777  38.705  51.522
70412W        W62336  32.213  26.723  49.699
70413W        W62337  29.212   6.745  51.984
70414W        W62338  48.206  44.196  52.883
70415W        W62339   2.255  26.734  53.783
70416W        W62340  42.724  26.256  50.593
70417W        W62341  27.732  11.741  51.947
70418W        W62342  38.721  33.217  51.985
70419W        W62343  19.239  41.183  50.610
70420W        W62344  25.236  28.230  52.861
70421W        W62345  16.754  33.727  50.157
70422W        W62346  13.773  21.730  49.688
70423W        W62347  40.195  31.228  52.882
70424W        W62348  24.747  41.692  53.347
70425W        W62349  34.218   6.261  52.871
70426W        W62350   8.744   3.778  52.413
70427W        W62351  26.244   8.769  51.064
70428W        W62352  24.223  28.730  51.956
70429W        W62353  23.233  14.766  52.873
70430W        W62354  35.215  40.229  53.342
70431W        W62355   7.755  14.242  51.076
70432W        W62356  39.687  42.187  51.035
70433W        W62357  27.722  31.214  52.867
70434W        W62358  36.204  32.743  52.867
70435W        W62359  30.208  45.696  51.531
70436W        W62360  15.245  22.214  53.341
70437W        W62361  35.195  46.683  50.158
70438W        W62362   8.276  37.717  49.669
70439W        W62363  14.772   7.745  50.144
70440W        W62364  41.713  22.724  51.053
70441W        W62365  38.706  27.742  50.132
70442W        W62366  27.248  12.746  53.323
70443W        W62367  23.760  43.719  53.783
70444W        W62368  11.256  23.216  51.047
70445W        W62369  44.719  10.762  50.579
70446W        W62370  34.703  23.247  51.989
70447W        W62371  10.257  13.731  52.872
70448W        W62372  39.200  29.713  52.901
70449W        W62373  19.758  40.233  53.333
70450W        W62374  14.733  45.698  53.803
70451W        W62375  32.701  40.186  51.978
70452W        W62376  45.702  41.721  53.361
70453W        W62377  11.266  38.702  50.132
70454W        W62378  32.740  21.223  53.336
70455W        W62379  35.696  40.698  52.893
70456W        W62380   2.293  33.217  51.510
70457W        W62381  29.734  33.234  52.865
70458W        W62382   7.744   0.254  52.415
70459W        W62383  35.239   6.246  50.589
70460W        W62384  22.243  34.742  52.867
70461W        W62385  13.738  25.257  49.679
70462W        W62386  46.176   1.295  53.806
70463W        W62387  47.189   1.773  51.510
70464W        W62388  28.207  11.737  49.689
70465W        W62389  42.681   8.767  52.876
70466W        W62390  18.263   8.772  51.970
70467W        W62391   9.236  11.751  50.578
70468W        W62392  47.186  20.225  52.896
70469W        W62393  21.729  24.732  51.533
70470W        W62394  19.222  11.758  53.352
70471W        W62395   0.757   2.279  50.160
70472W        W62396   3.250   8.780  51.067
70473W        W62397  28.719  12.737  53.359
70474W        W62398   2.272  11.273  49.703
70475W        W62399   1.765  23.756  53.803
70476W        W62400  46.189   7.247  53.350
70477W        W62401  35.217  10.757  53.354
70478W        W62402  41.200   0.794  49.699
70479W        W62403  29.211  11.740  53.324
70480W        W62404  31.231  33.241  50.584
70481W        W62405  10.251  17.259  50.605
70482W        W62406  26.741   6.787  53.323
70483W        W62407  14.730   2.293  51.965
70484W        W62408  38.729   3.779  51.987
70485W        W62409  30.722  23.215  53.783
70486W        W62410  46.194  38.227  52.874
70487W        W62411  22.737  43.224  51.077
70488W        W62412  17.230   0.788  49.676
70489W        W62413  25.728  19.234  51.052
70490W        W62414  13.248  14.740  49.669
70491W        W62415   7.758  26.252  53.808
70492W        W62416  12.247   7.755  51.976
70493W        W62417  46.721  10.272  53.812
70494W        W62418  32.201   8.239  52.870
70495W        W62419   3.769   8.778  51.066
70496W        W62420  34.206  24.231  51.066
70497W        W62421   3.265   1.777  52.902
70498W        W62422  13.757  47.181  50.143
70499W        W62423  17.232  28.232  53.779
70500W        W62424  15.732   9.241  50.605
70501W        W62425   3.758  46.673  51.066
70502W        W62426  23.235  16.738  51.490
70503W        W62427  40.204  46.701  51.992
70504W        W62428  28.707  34.704  53.340
70505W        W62429  28.213  22.732  50.156
70506W        W62430  21.751  28.220  50.135
70507W        W62431  27.712  20.234  51.506
70508W        W62432  34.238   0.750  51.972
70509W        W62433   8.744  42.696  50.613
70510W        W62434  43.214  44.199  50.601
70511W        W62435   7.752  29.246  51.071
70512W        W62436  13.750  27.218  50.583
70513W        W62437  10.769  24.728  52.421
70514W        W62438  27.210   5.275  49.688
70515W        W62439  25.719   0.751  51.045
70516W        W62440  35.695   7.745  51.976
70517W        W62441   6.264  38.708  53.817
70518W        W62442   6.245  19.268  51.075
70519W        W62443  10.272  37.196  49.702
70520W        W62444  40.208  36.703  49.678
70521W        W62445   2.758  29.242  50.150
70522W        W62446  19.235  40.185  51.053
70523W        W62447  10.741   7.250  50.611
70524W        W62448  40.704  28.215  51.508
70525W        W62449   9.282  40.219  53.343
70526W        W62450  14.767   2.766  53.346
70527W        W62451   2.781  34.201  50.612
70528W        W62452  22.215   9.236  51.504
70529W        W62453  28.747  48.201  51.963
70530W        W62454  17.230  39.685  51.493
70531W        W62455  41.214  43.194  51.972
70532W        W62456   2.787   7.274  51.061
70533W        W62457   6.278  22.731  53.776
70534W        W62458  32.715  14.242  50.150
70535W        W62459   0.782   8.769  52.888
70536W        W62460  34.694   2.747  51.991
70537W        W62461  38.735  19.221  49.670
70538W        W62462   5.289   5.786  53.803
70539W        W62463  11.242  10.253  51.956
70540W        W62464  28.234  18.724  53.326
70541W        W62465  26.713  14.744  50.617
70542W        W62466  13.760  21.747  53.352
70543W        W62467  22.760   7.752  51.952
70544W        W62468  45.181  38.229  51.043
70545W        W62469  23.756  33.211  52.861
70546W        W62470  21.255  44.677  52.900
70547W        W62471  16.759  17.749  51.051
70548W        W62472  26.249  36.690  51.053
70549W        W62473  18.757  26.215  52.441
70550W        W62474  30.212  45.724  52.446
70551W        W62475  46.174  25.711  51.988
70552W        W62476  36.220   2.261  50.580
70553W        W62477  14.760  37.710  51.062
70554W        W62478   3.246  27.243  53.324
70555W        W62479   5.742  33.700  49.667
70556W        W62480  27.736  32.209  51.952
70557W        W62481  30.232   3.786  51.510
70558W        W62482  45.697  15.752  53.777
70559W        W62483  35.225   9.257  51.990
70560W        W62484  15.764  38.203  50.619
70561W        W62485  26.207  36.717  51.962
70562W        W62486  42.720  40.184  49.683
70563W        W62487  30.202  41.183  51.988
70564W        W62488   2.296  15.262  52.890
70565W        W62489  11.739   4.253  53.324
70566W        W62490  48.201  18.229  52.411
70567W        W62491  10.267   2.291  52.426
70568W        W62492  10.279   4.267  49.697
70569W        W62493   9.747  37.195  50.600
70570W        W62494  21.263   4.274  53.324
70571W        W62495   6.785   6.786  51.054
70572W        W62496  30.704  43.208  49.703
70573W        W62497  17.747  29.215  52.871
70574W        W62498  36.225  44.211  52.893
70575W        W62499  29.247  15.738  53.357
70576W        W62500  34.703  15.226  49.684
70577W        W62501  38.696  27.742  51.951
70578W        W62502  44.201  28.226  51.493
70579W        W62503  30.745  12.249  51.502
70580W        W62504  12.274  18.257  49.695
70581W        W62505  22.729  29.739  50.140
70582W        W62506  18.764   0.277  52.899
70583W        W62507   9.768  15.236  51.051
70584W        W62508  10.771  44.695  51.057
70585W        W62509  19.237  44.681  50.586
70586W        W62510  30.206  29.226  49.694
70587W        W62511  15.225  25.744  49.679
70588W        W62512  20.263  15.233  49.690
70589W        W62513  32.206  38.206  51.503
70590W        W62514  21.219   5.274  52.887
70591W        W62515  36.725  44.703  53.332
70592W        W62516  37.237  45.191  50.140
70593W        W62517  25.223  21.262  51.531
70594W        W62518  26.248  32.742  51.047
70595W        W62519   4.775  11.275  53.351
70596W        W62520  44.222   6.240  49.679
70597W        W62521  44.707  15.726  51.989
70598W        W62522  39.691  26.729  52.429
70599W        W62523  35.202  32.231  51.040
70600W        W62524  19.732  39.228  52.864
70601W        W62525  24.226  36.717  50.615
70602W        W62526   6.243   7.780  49.671
70603W        W62527  29.732   0.260  51.520
70604W        W62528   1.781  11.739  51.526
70605W        W62529  33.204  42.204  51.072
70606W        W62530  28.248  20.739  51.516
70607W        W62531  18.763  15.253  52.406
70608W        W62532  17.757  24.718  51.496
70609W        W62533  14.728  46.691  51.519
70610W        W62534  26.717  11.258  50.578
70611W        W62535  36.720  25.222  50.129
70612W        W62536   9.278  45.208  53.331
70613W        W62537  11.754  48.216  51.066
70614W        W62538   2.278  44.678  50.597
70615W        W62539  26.723  30.737  52.902
70616W        W62540  46.185  11.757  53.357
70617W        W62541  38.219   3.269  53.808
70618W        W62542  43.180  45.694  51.070
70619W        W62543  21.236  21.233  49.702
70620W        W62544  16.272  45.186  52.419
70621W        W62545  20.748  44.717  52.439
70622W        W62546  34.230  43.715  50.581
70623W        W62547   5.273  27.722  49.677
70624W        W62548  43.218  47.217  51.042
70625W        W62549  21.246  14.230  50.148
70626W        W62550  17.256  30.248  53.330
70627W        W62551  30.213  26.219  50.150
70628W        W62552   5.283  23.735  51.071
70629W        W62553  17.753  14.759  53.331
70630W        W62554  18.249  25.222  50.140
70631W        W62555  43.717  45.183  50.593
70632W        W62556  15.229  45.176  51.494
70633W        W62557  24.231  47.180  50.137
70634W        W62558   1.276  34.233  52.436
70635W        W62559   8.771   5.275  50.592
70636W        W62560  42.692  17.766  52.437
70637W        W62561  12.753  29.708  50.600
70638W        W62562   6.264  30.239  51.988
70639W        W62563  28.229  44.200  53.340
70640W        W62564  11.760   3.773  51.525
70641W        W62565  34.202  17.269  51.040
70642W        W62566  36.711  14.258  51.529
70643W        W62567  40.693  44.712  51.065
70644W        W62568  25.217  44.194  53.808
70645W        W62569  22.719  32.234  53.338
70646W        W62570   0.788   7.778  51.037
70647W        W62571  48.206   6.751  51.499
70648W        W62572   0.786  26.227  50.588
70649W        W62573  17.243  24.734  50.600
70650W        W62574  10.257  41.705  53.361
70651W        W62575   9.244  20.223  51.058
70652W        W62576   7.259  24.227  50.126
70653W        W62577  31.217  27.242  53.794
70654W        W62578  29.748  46.213  51.523
70655W        W62579  38.228  45.176  50.588
70656W        W62580  42.692  23.217  53.356
70657W        W62581  19.257  10.245  50.619
70658W        W62582  34.216  10.245  51.531
70659W        W62583  47.699  12.776  51.971
70660W        W62584  20.242   3.773  53.808
70661W        W62585   3.291  47.697  50.152
70662W        W62586  17.727  45.681  49.678
70663W        W62587  44.200  33.703  53.797
70664W        W62588  42.686  17.225  53.809
70665W        W62589  18.256  27.207  52.899
70666W        W62590  27.234   5.783  52.436
70667W        W62591  30.738  44.226  52.405
70668W        W62592  15.230  17.244  53.360
70669W        W62593  29.727  37.214  49.689
70670W        W62594  32.235  19.737  51.510
70671W        W62595   0.784   9.245  51.065
70672W        W62596  11.754   3.274  51.064
70673W        W62597  12.271  37.216  51.956
70674W        W62598  24.222  38.695  52.427
70675W        W62599  42.704  32.735  51.969
70676W        W62600  34.730  45.714  49.710
70677W        W62601   2.771  48.185  51.535
70678W        W62602   3.791  47.702  51.076
70679W        W62603   6.768  21.756  50.590
70680W        W62604  24.259  10.255  52.900
70681W        W62605  42.688  26.726  51.054
70682W        W62606  14.253   4.747  51.982
70683W        W62607  16.263  10.246  51.991
70684W        W62608  31.247  38.205  51.496
70685W        W62609  15.728  14.240  52.885
70686W        W62610  16.764  12.745  51.502
70687W        W62611  28.710   9.769  53.809
70688W        W62612  13.728  26.226  51.497
70689W        W62613   6.267  46.207  53.778
70690W        W62614  35.695  39.199  53.799
70691W        W62615  42.214  15.745  50.622
70692W        W62616  11.746  14.273  51.498
70693W        W62617   9.250  34.706  53.343
70694W        W62618  48.183  39.690  51.992
70695W        W62619  36.718  42.214  51.066
70696W        W62620  39.699  12.753  49.671
70697W        W62621  34.705  13.729  52.863
70698W        W62622  33.719  25.715  50.158
70699W        W62623   0.265  14.260  50.155
70700W        W62624  35.224   8.758  53.320
70701W        W62625  23.719   0.796  50.133
70702W        W62626   2.756   2.289  51.528
70703W        W62627  12.748  13.274  52.427
70704W        W62628  32.224  18.740  52.403
70705W        W62629  30.746  19.763  51.523
70706W        W62630  15.757  28.734  51.969
70707W        W62631  28.739  24.743  51.966
70708W        W62632  42.691   5.245  51.952
70709W        W62633  46.187  36.720  51.501
70710W        W62634  32.707  33.227  53.318
70711W        W62635  14.272  11.257  50.165
70712W        W62636  25.213  46.222  50.590
70713W        W62637  37.192   7.773  53.802
70714W        W62638  27.713  44.206  53.775
70715W        W62639  32.198   6.269  52.407
70716W        W62640   0.269  29.736  49.674
70717W        W62641  45.711  32.705  53.360
70718W        W62642  20.750   2.292  53.324
70719W        W62643  13.740  40.700  51.051
70720W        W62644  12.739  47.217  52.886
70721W        W62645  48.209  44.713  53.785
70722W        W62646  19.225   6.778  50.594
70723W        W62647  33.727   1.778  53.316
70724W        W62648  43.213  42.714  49.705
70725W        W62649  39.198  33.743  52.435
70726W        W62650  42.695  31.216  52.425
70727W        W62651   1.757   4.274  49.676
70728W        W62652   1.791  17.734  52.898
70729W        W62653  38.224  35.703  52.886
70730W        W62654  14.774  24.755  53.340
70731W        W62655  25.732  20.752  52.410
70732W        W62656  43.180  26.226  52.904
70733W        W62657  26.726  14.254  52.434
70734W        W62658  39.712  15.246  52.862
70735W        W62659  47.678  40.196  53.342
70736W        W62660  39.200   1.270  49.702
70737W        W62661  28.221   9.247  49.687
70738W        W62662  29.750  35.730  53.353
70739W        W62663   0.289  36.233  50.608
70740W        W62664  38.226  22.735  51.976
70741W        W62665  32.697  32.726  53.344
70742W        W62666  16.739  29.726  51.963
70743W        W62667  28.247  40.702  51.977
70744W        W62668   1.791   8.258  51.972
70745W        W62669  17.247  40.729  52.900
70746W        W62670  40.732   2.759  51.534
70747W        W62671  27.731  17.244  50.155
70748W        W62672  11.266  41.228  51.070
70749W        W62673  22.261   3.778  53.792
70750W        W62674  14.235  40.229  52.429
70751W        W62675   5.255  43.689  50.125
70752W        W62676   2.776  13.741  51.066
70753W        W62677  46.717  43.182  50.149
70754W        W62678  12.252  28.222  53.330
70755W        W62679   4.754  39.701  50.132
70756W        W62680  10.254  45.191  50.622
70757W        W62681   7.739   3.789  50.612
70758W        W62682  41.230  38.197  52.433
70759W        W62683  11.737  35.230  53.784
70760W        W62684  14.262  31.729  50.617
70761W        W62685  43.686  21.252  51.947
70762W        W62686  31.217   2.283  50.153
70763W        W62687  39.730  30.217  51.525
70764W        W62688  20.236  10.746  51.512
70765W        W62689  14.230  15.249  50.163
70766W        W62690  15.756   0.288  52.406
70767W        W62691  27.242  12.269  50.579
70768W        W62692  41.717  30.249  51.042
70769W        W62693   5.788   0.790  51.040
70770W        W62694  15.761  26.737  49.690
70771W        W62695  10.264  26.741  50.135
70772W        W62696  46.709   7.277  51.070
70773W        W62697   2.771  32.235  53.778
70774W        W62698  27.220   9.777  49.669
70775W        W62699  26.239  26.214  52.875
70776W        W62700  44.681  30.719  53.357
70777W        W62701   5.786  44.697  51.505
70778W        W62702  27.705  11.257  50.121
70779W        W62703  36.208   3.275  51.507
70780W        W62704  44.686  24.249  51.969
70781W        W62705  25.256  34.207  50.614
70782W        W62706  41.725  46.182  51.037
70783W        W62707  30.728  29.730  53.354
70784W        W62708  29.216   5.754  50.147
70785W        W62709  17.250  23.752  51.506
70786W        W62710  32.726  20.754  51.981
70787W        W62711  32.704  15.740  51.498
70788W        W62712  31.210   2.287  49.698
70789W        W62713  14.757  41.197  50.612
70790W        W62714  12.243  41.685  53.801
70791W        W62715   7.780  43.680  53.778
70792W        W62716  15.766  38.728  49.703
70793W        W62717  41.721  22.734  50.148
70794W        W62718   3.751  11.736  53.341
70795W        W62719  19.767  37.214  50.584
70796W        W62720   9.766  14.767  49.677
70797W        W62721   1.780  25.725  53.788
70798W        W62722  36.716  34.735  50.165
70799W        W62723   9.773   2.265  53.325
70800W        W62724  16.256  14.758  51.500
70801W        W62725   5.790  34.706  51.984
70802W        W62726  13.762  37.736  49.698
70803W        W62727  19.762  24.721  51.985
70804W        W62728  27.216  28.214  53.349
70805W        W62729  41.201  31.711  50.622
70806W        W62730  30.749  26.220  51.505
70807W        W62731  37.702  42.729  53.360
70808W        W62732  20.746  11.771  51.062
70809W        W62733  18.248  26.217  52.432
70810W        W62734  30.716  17.249  50.131
70811W        W62735  18.751  10.758  49.701
70812W        W62736   1.797  48.175  49.694
70813W        W62737  19.253  47.685  51.043
70814W        W62738  26.222  42.193  50.612
70815W        W62739  38.208  33.237  51.072
70816W        W62740  27.242  22.218  52.409
70817W        W62741   1.255   6.247  51.063
70818W        W62742  25.712   2.793  51.522
70819W        W62743  42.723  38.690  52.431
70820W        W62744  37.707  17.260  51.977
70821W        W62745   4.780  40.221  52.881
70822W        W62746  41.222  16.258  50.164
70823W        W62747  10.269  12.772  52.432
70824W        W62748  13.250  41.204  53.324
70825W        W62749  16.754  43.687  49.671
70826W        W62750   0.260  40.697  49.672
70827W        W62751  33.218   6.766  51.503
70828W        W62752  32.208  34.222  52.438
70829W        W62753  25.714  27.726  50.154
70830W        W62754   7.245  33.213  51.078
70831W        W62755  25.241  16.724  50.165
70832W        W62756  45.193   7.261  49.707
70833W        W62757  36.208  28.212  52.423
70834W        W62758  39.212   5.763  52.903
70835W        W62759  31.736  42.681  49.700
70836W        W62760  16.262  38.721  51.070
70837W        W62761  26.714  38.194  52.409
70838W        W62762   6.777  12.272  50.124
70839W        W62763   2.789  13.261  50.146
70840W        W62764  42.211  28.712  52.882
70841W        W62765  17.243   6.787  52.861
70842W        W62766   8.761  21.240  53.325
70843W        W62767  17.255  42.714  51.034
70844W        W62768  33.707  10.262  52.408
70845W        W62769   7.260  28.712  52.426
70846W        W62770  13.266  10.780  53.778
70847W        W62771  27.726  32.245  53.813
70848W        W62772   8.272  48.206  52.895
70849W        W62773  33.734  42.205  51.492
70850W        W62774   3.758  37.202  51.035
70851W        W62775  20.745   0.752  51.534
70852W        W62776  22.235   2.284  53.794
70853W        W62777  14.773  21.759  50.595
70854W        W62778   9.237  19.238  53.796
70855W        W62779  29.735   3.262  50.124
70856W        W62780   3.781  27.735  53.360
70857W        W62781  12.748  40.698  50.584
70858W        W62782  10.254  25.753  53.781
70859W        W62783  48.208  13.252  50.581
70860W        W62784  29.226  38.698  49.703
70861W        W62785  36.234  10.771  49.671
70862W        W62786  11.778   9.269  53.340
70863W        W62787  14.733  15.260  52.426
70864W        W62788  29.206  45.217  52.416
70865W        W62789  40.685   2.274  50.590
70866W        W62790  19.261   3.251  50.137
70867W        W62791  12.242  25.219  52.901
70868W        W62792  28.751  12.744  51.071
70869W        W62793  17.235  43.227  51.069
70870W        W62794  19.758  41.696  52.902
70871W        W62795  40.217  19.758  50.134
70872W        W62796  47.681   5.768  51.039
70873W        W62797  48.194  45.713  53.349
70874W        W62798  44.689   9.238  53.781
70875W        W62799  41.685  41.729  52.433
70876W        W62800   3.760  47.219  52.873
70877W        W62801  32.709   2.249  51.504
70878W        W62802  11.249  45.713  51.067
70879W        W62803  23.235  20.257  51.528
70880W        W62804  31.213  29.701  53.817
70881W        W62805  28.750  45.179  52.894
70882W        W62806  12.234  33.236  51.982
70883W        W62807  18.244  28.714  50.153
70884W        W62808  16.736  45.201  50.127
70885W        W62809  25.223  14.262  53.802
70886W        W62810   5.767  27.738  52.865
70887W        W62811  31.726  16.258  53.360
70888W        W62812  29.707  20.750  51.976
70889W        W62813  47.211  16.250  51.504
70890W        W62814  45.721   6.273  51.969
70891W        W62815   5.773  21.235  51.061
70892W        W62816   1.794  45.716  51.055
70893W        W62817   8.773  42.705  49.704
70894W        W62818  15.758  17.263  52.888
70895W        W62819   5.745  28.220  51.037
70896W        W62820  44.198  35.215  52.432
70897W        W62821  47.686  13.765  51.520
70898W        W62822  40.208  27.216  52.866
70899W        W62823   7.252  30.720  49.701
70900W        W62824  12.734   4.763  53.784
70901W        W62825  26.208  22.758  49.667
70902W        W62826  18.726  16.246  51.527
70903W        W62827  47.174  38.214  52.414
70904W        W62828  16.244  38.694  52.412
70905W        W62829   6.784  43.717  51.520
70906W        W62830  24.224  34.224  53.802
70907W        W62831  30.738  28.744  53.353
70908W        W62832  46.688   6.781  52.410
70909W        W62833  40.194  47.222  50.141
70910W        W62834  24.754  34.732  52.420
70911W        W62835   5.777  10.270  51.035
70912W        W62836  24.746  11.733  51.512
70913W        W62837  12.757  16.272  50.161
70914W        W62838  45.722  34.213  51.510
70915W        W62839  41.682  27.750  52.884
70916W        W62840  43.213  14.228  49.707
70917W        W62841  38.723  27.729  51.035
70918W        W62842  27.219  12.767  52.892
70919W        W62843  26.754  29.221  52.881
70920W        W62844  31.218  23.733  52.896
70921W        W62845   1.284   4.771  52.408
70922W        W62846  42.184  36.738  51.967
70923W        W62847  29.213  43.208  52.441
70924W        W62848  15.240  39.188  52.429
70925W        W62849  30.210  15.246  53.805
70926W        W62850  12.753   5.789  50.599
70927W        W62851  32.731   7.780  49.695
70928W        W62852   4.248  16.741  50.605
70929W        W62853  26.750  43.180  50.141
70930W        W62854  13.758  20.224  50.597
70931W        W62855   5.272  17.236  51.066
70932W        W62856   8.272  13.756  52.873
70933W        W62857  39.730   5.748  53.801
70934W        W62858  47.676  31.226  50.618
70935W        W62859  33.721  40.701  51.534
70936W        W62860  12.235  35.715  50.602
70937W        W62861  12.274  14.756  50.142
70938W        W62862   9.274   0.794  49.700
70939W        W62863  42.206  20.246  49.701
70940W        W62864  27.749   3.745  51.065
70941W        W62865  33.229  41.212  53.352
70942W        W62866  39.195  10.764  50.588
70943W        W62867  27.739  39.192  51.075
70944W        W62868   3.265  18.247  51.959
70945W        W62869  34.719  27.736  53.349
70946W        W62870  14.730   7.250  53.330
70947W        W62871  15.750  24.709  51.066
70948W        W62872   3.744  34.716  51.516
70949W        W62873  42.709  44.227  51.506
70950W        W62874  46.696  35.700  53.817
70951W        W62875  41.206  30.740  51.958
70952W        W62876   8.247  48.208  49.698
70953W        W62877  19.746  31.219  52.860
70954W        W62878  17.236   1.276  51.980
70955W        W62879  14.271  42.207  51.973
70956W        W62880  28.705   7.754  50.620
70957W        W62881  44.683  43.214  51.972
70958W        W62882   3.778   2.286  53.337
70959W        W62883  29.749   3.270  51.531
70960W        W62884  33.224  23.742  49.667
70961W        W62885   9.745  21.750  53.316
70962W        W62886   9.740  25.741  51.512
70963W        W62887  21.745   8.746  50.132
70964W        W62888  48.211  33.220  53.356
70965W        W62889   1.796  12.241  50.144
70966W        W62890  31.711  33.695  53.348
70967W        W62891  23.728  12.251  51.964
70968W        W62892  46.214  27.710  49.685
70969W        W62893  16.772  14.253  50.583
70970W        W62894  21.746  26.216  53.356
70971W        W62895  40.213   9.251  51.500
70972W        W62896  11.234  42.210  50.123
70973W        W62897   9.759  38.209  52.861
70974W        W62898   1.256  30.712  52.870
70975W        W62899  25.728  24.213  51.059
70976W        W62900  30.729  11.239  51.508
70977W        W62901  11.275  10.743  51.947
70978W        W62902  10.782  41.691  51.977
70979W        W62903  15.768  28.209  51.953
70980W        W62904  45.712  27.743  51.529
70981W        W62905  26.729  31.710  51.045
70982W        W62906  29.249  24.258  50.125
70983W        W62907   1.759  45.677  51.526
70984W        W62908   4.261  12.738  52.448
70985W        W62909   4.783  33.208  53.326
70986W        W62910  12.763   3.273  51.509
70987W        W62911  25.221  30.721  53.317
70988W        W62912   9.743  23.227  52.435
70989W        W62913  28.231   9.780  51.527
70990W        W62914  28.230  19.241  50.579
70991W        W62915  18.234  47.714  50.607
70992W        W62916  11.735  40.224  49.678
70993W        W62917  20.739  45.204  51.959
70994W        W62918  10.771   5.265  53.335
70995W        W62919  29.214  47.681  51.501
70996W        W62920   8.740  17.248  49.671
70997W        W62921  31.218   2.293  51.982
70998W        W62922  23.260  29.715  51.974
70999W        W62923  23.257  35.232  50.613
71000W        W62924  30.720  22.250  52.446
71001W        W62925  10.752  29.251  52.426
71002W        W62926  17.729   3.293  52.860
71003W        W62927  15.767   8.777  50.129
71004W        W62928  26.247  11.763  53.330
71005W        W62929  35.713  44.183  51.049
71006W        W62930  15.255  14.247  50.154
71007W        W62931   4.788  10.770  52.877
71008W        W62932   6.252  27.225  50.124
71009W        W62933  46.206  46.210  53.817
71010W        W62934  25.211  24.238  50.140
71011W        W62935  10.781  28.730  49.685
71012W        W62936  30.720  48.212  53.320
71013W        W62937  32.746  13.733  51.950
71014W        W62938   6.271  44.704  52.902
71015W        W62939  46.709  23.737  49.691
71016W        W62940  13.740  14.733  51.039
71017W        W62941  47.692   0.286  53.351
71018W        W62942  30.225  36.228  51.035
71019W        W62943  23.746  22.242  49.705
71020W        W62944   6.277  16.764  51.035
71021W        W62945  20.243  29.221  52.903
71022W        W62946   4.281  26.222  51.525
71023W        W62947  18.756  15.242  51.490
71024W        W62948  28.720   2.286  49.705
71025W        W62949  14.754  25.754  51.067
71026W        W62950   3.752  10.280  52.437
71027W        W62951  38.220  28.741  53.349
71028W        W62952  22.726  14.756  51.503
71029W        W62953  42.726  36.206  49.678
71030W        W62954  38.192  10.766  51.513
71031W        W62955  11.280  39.227  50.616
71032W        W62956  33.712  45.717  53.333
71033W        W62957  28.720  24.750  50.165
71034W        W62958  11.253  31.739  52.448
71035W        W62959  25.731  37.715  53.797
71036W        W62960  22.232  13.262  50.612
71037W        W62961  12.762   0.264  51.505
71038W        W62962  27.712  35.727  50.585
71039W        W62963  46.204  15.728  49.674
71040W        W62964   2.263  23.215  51.066
71041W        W62965  15.227  23.230  51.506
71042W        W62966  44.723  40.206  51.513
71043W        W62967  35.239  47.189  50.620
71044W        W62968  24.734  10.235  52.423
71045W        W62969   8.277  20.239  53.802
71046W        W62970  28.730  31.712  51.959
71047W        W62971   1.295   8.775  51.978
71048W        W62972  28.229  47.183  53.802
71049W        W62973  10.278  30.229  53.349
71050W        W62974  10.755  17.737  51.071
71051W        W62975  30.746  45.721  51.038
71052W        W62976  32.234  44.223  51.534
71053W        W62977  24.252  45.709  49.667
71054W        W62978  47.696  38.721  50.135
71055W        W62979  21.715   7.275  51.491
71056W        W62980  11.763   8.766  50.584
71057W        W62981  29.720  35.217  49.684
71058W        W62982  44.204  27.752  53.350
71059W        W62983  46.184   3.751  53.799
71060W        W62984  40.707   4.254  51.063
71061W        W62985  25.708  14.267  51.035
71062W        W62986  25.733   2.263  52.424
71063W        W62987  23.249   7.769  51.512
71064W        W62988  39.726   0.268  53.780
71065W        W62989   5.268   8.284  51.076
71066W        W62990  35.723  40.699  51.493
71067W        W62991  30.737  45.209  52.422
71068W        W62992   8.757  20.766  51.053
71069W        W62993  13.265  35.731  53.348
71070W        W62994  37.707  47.197  52.891
71071W        W62995  20.762  25.755  51.057
71072W        W62996  11.764  28.728  50.122
71073W        W62997  17.224  42.682  50.614
71074W        W62998  30.721  40.718  50.603
71075W        W62999  30.705  18.225  53.795
71076W        W63000   6.742   2.290  51.960
71077W        W63001  15.252  18.726  50.151
71078W        W63002  11.776  27.234  50.163
71079W        W63003  45.715  32.237  51.519
71080W        W63004  24.255  36.702  49.703
71081W        W63005   0.261  21.740  52.900
71082W        W63006  35.239  14.731  51.973
71083W        W63007  39.199  42.727  53.789
71084W        W63008  39.704  19.735  53.344
71085W        W63009  19.229  33.204  53.358
71086W        W63010   5.774  12.763  52.886
71087W        W63011  26.234  22.733  50.143
71088W        W63012  42.727  26.752  51.953
71089W        W63013  41.731  44.225  52.448
71090W        W63014  30.202  30.716  51.947
71091W        W63015  39.217  31.729  49.684
71092W        W63016  43.690  11.778  53.325
71093W        W63017  44.199  21.218  49.674
71094W        W63018  20.746   5.284  50.161
71095W        W63019  28.212  11.242  49.678
71096W        W63020  23.711  26.252  50.160
71097W        W63021  44.687  17.766  51.503
71098W        W63022  32.736  37.709  50.622
71099W        W63023  29.234   1.278  49.678
71100W        W63024   3.290  23.749  53.798
71101W        W63025  23.250   0.269  52.866
71102W        W63026  37.228  11.754  52.904
71103W        W63027  36.222  21.717  51.965
71104W        W63028  40.205  31.231  50.129
71105W        W63029  23.225  27.215  53.353
71106W        W63030  18.755  18.737  53.805
71107W        W63031  33.734   8.741  50.621
71108W        W63032  47.212  20.758  53.788
71109W        W63033  32.206  30.237  53.804
71110W        W63034  40.203  24.747  52.880
71111W        W63035  41.707  22.244  53.335
71112W        W63036  43.720  26.714  52.411
71113W        W63037  26.747   1.268  53.318
71114W        W63038  25.214  38.702  50.132
71115W        W63039  43.201  25.754  53.326
71116W        W63040  34.695  25.737  51.046
71117W        W63041  22.761  28.224  53.807
71118W        W63042  34.239  38.701  50.149
71119W        W63043   0.781   3.250  52.872
71120W        W63044   3.258   2.748  53.350
71121W        W63045  45.707  31.211  51.531
71122W        W63046  30.230   1.262  53.329
71123W        W63047  22.253  43.198  53.815
71124W        W63048  11.246  24.223  53.342
71125W        W63049   0.792  14.246  53.809
71126W        W63050   7.261  42.715  51.982
71127W        W63051  37.212  12.730  50.153
71128W        W63052  32.743  29.224  50.590
71129W        W63053  15.263  22.231  51.494
71130W        W63054  26.739  20.754  51.497
71131W        W63055  41.704   6.761  51.523
71132W        W63056  43.707  12.237  53.334
71133W        W63057  12.265  23.750  52.894
71134W        W63058   6.275   5.267  50.595
71135W        W63059  46.690  10.277  52.411
71136W        W63060  12.243  18.767  51.527
71137W        W63061  16.748  19.230  53.792
71138W        W63062   6.268  34.729  53.345
71139W        W63063  32.702  22.721  51.078
71140W        W63064  29.247  23.744  51.949
71141W        W63065  39.690  12.774  53.323
71142W        W63066  41.721  14.761  50.583
71143W        W63067  15.266  45.692  51.957
71144W        W63068  19.736  34.237  53.350
71145W        W63069   9.284   3.247  52.428
71146W        W63070  27.248  18.267  50.128
71147W        W63071  41.724  25.212  51.063
71148W        W63072  43.719  39.703  51.979
71149W        W63073   9.276  28.206  53.344
71150W        W63074   3.755  24.727  50.609
71151W        W63075  32.735  27.241  53.794
71152W        W63076  19.718   1.275  49.689
71153W        W63077  45.181   8.778  52.868
71154W        W63078  41.190  36.201  53.817
71155W        W63079  13.761  12.279  53.325
71156W        W63080  24.752  10.768  52.870
71157W        W63081   1.782  35.696  49.679
71158W        W63082   9.236  20.731  49.696
71159W        W63083  24.741  29.209  50.605
71160W        W63084   9.758   7.766  53.810
71161W        W63085   1.274  12.732  51.976
71162W        W63086  33.724   5.253  53.324
71163W        W63087  11.734  22.721  52.870
71164W        W63088  27.214  48.192  53.814
71165W        W63089  46.209  22.239  49.692
71166W        W63090  32.222  33.245  51.039
71167W        W63091  46.201   4.763  52.864
71168W        W63092  24.737  12.275  50.608
71169W        W63093  10.738  30.741  52.437
71170W        W63094   0.297   3.262  51.947
71171W        W63095  45.708  38.705  50.604
71172W        W63096   5.270  40.711  52.414
71173W        W63097  39.192  10.270  53.801
71174W        W63098  30.709  47.203  51.519
71175W        W63099  22.254  44.179  50.585
71176W        W63100   5.242  35.700  50.121
71177W        W63101  40.191   0.763  52.409
71178W        W63102  33.226  22.243  51.986
71179W        W63103  16.251  45.197  52.887
71180W        W63104  30.717  18.741  50.602
71181W        W63105  36.212  48.189  51.517
71182W        W63106  29.734  37.237  51.063
71183W        W63107  30.238  40.193  52.884
71184W        W63108  15.239   1.756  52.891
71185W        W63109  24.754  42.714  53.328
71186W        W63110  38.690  48.217  51.523
71187W        W63111  44.693  14.757  52.867
71188W        W63112  48.202  20.265  52.881
71189W        W63113  10.259  11.741  49.703
71190W        W63114  28.709  47.713  53.321
71191W        W63115  28.209   8.745  49.666
71192W        W63116  18.232  26.729  49.680
71193W        W63117   6.257  44.214  53.791
71194W        W63118  38.232  24.221  51.513
71195W        W63119  33.737  13.256  53.350
71196W        W63120  29.711  14.236  53.799
71197W        W63121  28.216   3.764  52.865
71198W        W63122  26.725  39.734  53.781
71199W        W63123  28.224  24.750  53.774
71200W        W63124  25.217  12.756  52.875
71201W        W63125  13.267   1.786  51.953
71202W        W63126  18.242  45.724  49.692
71203W        W63127  16.244   6.268  53.323
71204W        W63128   6.741  15.273  50.135
71205W        W63129  13.270  37.211  52.876
71206W        W63130  42.185  35.725  49.684
71207W        W63131  24.719  19.242  51.069
71208W        W63132  11.265  17.237  51.056
71209W        W63133  12.770  14.769  52.900
71210W        W63134  18.237   3.765  49.671
71211W        W63135  44.190  37.708  50.160
71212W        W63136   8.742   6.268  50.121
71213W        W63137  15.739  20.716  52.431
71214W        W63138  30.705  16.772  49.688
71215W        W63139  25.235  45.682  50.153
71216W        W63140  18.238  24.736  52.438
71217W        W63141  37.189  15.226  52.892
71218W        W63142  32.705  17.750  51.066
71219W        W63143  28.252  12.738  51.496
71220W        W63144  27.712  17.760  53.795
71221W        W63145  26.209  22.717  51.043
71222W        W63146  39.197  47.192  52.871
71223W        W63147  30.222  39.712  51.949
71224W        W63148  41.185  36.723  53.781
71225W        W63149  20.729  23.735  51.514
71226W        W63150  19.231  17.244  51.984
71227W        W63151   0.290   0.771  53.360
71228W        W63152   7.740  17.761  52.885
71229W        W63153  44.221  21.217  50.617
71230W        W63154   9.758   9.257  49.680
71231W        W63155   3.286  17.741  49.681
71232W        W63156  20.262  32.727  51.523
71233W        W63157   6.765  21.259  50.587
71234W        W63158  43.195  27.704  53.322
71235W        W63159   2.291  39.697  53.788
71236W        W63160  36.222   6.778  51.039
71237W        W63161  46.203  39.188  51.959
71238W        W63162  27.722  35.217  52.428
71239W        W63163  44.215  31.715  53.361
71240W        W63164  19.249  19.752  53.800
71241W        W63165   2.262   3.251  53.345
71242W        W63166  12.242  24.738  49.673
71243W        W63167  46.698  20.225  50.127
71244W        W63168  38.736  20.747  51.035
71245W        W63169   4.779  37.691  49.701
71246W        W63170  19.243   8.738  51.047
71247W        W63171  36.733  46.184  51.970
71248W        W63172  45.706   1.249  50.621
71249W        W63173  28.232  46.176  49.670
71250W        W63174  40.207  19.721  51.503
71251W        W63175  32.711  40.211  51.508
71252W        W63176  26.238  34.194  51.076
71253W        W63177  42.691  31.702  50.121
71254W        W63178   0.268  10.769  50.586
71255W        W63179  32.716   8.749  51.523
71256W        W63180  25.221  27.740  53.778
71257W        W63181   5.765   8.285  53.359
71258W        W63182  16.742  13.261  51.528
71259W        W63183  11.752  42.709  52.441
71260W        W63184  30.247  47.687  50.596
71261W        W63185  43.197  46.204  53.775
71262W        W63186  24.228   5.248  51.492
71263W        W63187  26.732  43.192  51.946
71264W        W63188  14.232  45.205  50.593
71265W        W63189  29.219  18.724  51.990
71266W        W63190  29.729  36.732  53.800
71267W        W63191  45.221  37.699  50.601
71268W        W63192  40.731  10.262  49.710
71269W        W63193  22.730  12.279  49.671
71270W        W63194   0.290  41.714  51.986
71271W        W63195  24.746  22.216  52.894
71272W        W63196  45.193  37.233  51.521
71273W        W63197  34.211  47.204  51.070
71274W        W63198  12.745  12.273  53.775
71275W        W63199  38.719   1.249  51.498
71276W        W63200  37.218  16.244  51.046
71277W        W63201  18.251  12.245  53.357
71278W        W63202   3.265  23.725  51.075
71279W        W63203   7.262   2.249  52.860
71280W        W63204  38.708  31.720  53.349
71281W        W63205  11.264  20.730  52.418
71282W        W63206  34.240   1.797  51.964
71283W        W63207  20.247  22.740  52.432
71284W        W63208   6.764  39.207  53.773
71285W        W63209  19.719  27.229  51.075
71286W        W63210   9.264  33.237  51.989
71287W        W63211  17.754  48.198  53.355
71288W        W63212  10.749  37.702  50.161
71289W        W63213  37.696  19.730  51.070
71290W        W63214  43.200   3.766  50.137
71291W        W63215  11.233  40.206  53.780
71292W        W63216   4.781  27.221  49.685
71293W        W63217  46.211  15.234  50.602
71294W        W63218   5.751  39.723  52.432
71295W        W63219  40.708  34.226  52.877
71296W        W63220  21.264  32.225  50.131
71297W        W63221   0.262   2.784  49.677
71298W        W63222  37.205   3.791  50.144
71299W        W63223   5.786  15.749  49.676
71300W        W63224  34.225  26.734  52.406
71301W        W63225  22.226  47.700  52.905
71302W        W63226  23.230  19.766  53.341
71303W        W63227  11.767   0.269  52.435
71304W        W63228  14.246  16.228  49.702
71305W        W63229  26.224  44.688  50.122
71306W        W63230  35.733  15.735  51.504
71307W        W63231   0.290  33.201  53.786
71308W        W63232  44.218  14.761  49.677
71309W        W63233  41.730  34.201  50.163
71310W        W63234  39.715  16.736  52.410
71311W        W63235  28.725  24.212  52.865
71312W        W63236  48.195  45.180  53.333
71313W        W63237  16.756   2.276  53.317
71314W        W63238   8.240  26.253  50.138
71315W        W63239  48.175  31.202  49.692
71316W        W63240   0.756  10.762  49.707
71317W        W63241  34.234  43.218  51.505
71318W        W63242  24.218  42.681  49.664
71319W        W63243  45.705  38.224  52.409
71320W        W63244  40.221  45.680  51.074
71321W        W63245  24.251  11.254  50.608
71322W        W63246  39.204   9.753  53.778
71323W        W63247  16.248  33.702  52.871
71324W        W63248  40.685  25.215  52.892
71325W        W63249  36.709  34.739  51.060
71326W        W63250  48.203  21.742  51.044
71327W        W63251  25.229  17.266  52.888
71328W        W63252  31.211  11.269  51.493
71329W        W63253  37.226  34.196  53.801
71330W        W63254  20.249   9.751  51.039
71331W        W63255   2.770  39.197  51.534
71332W        W63256  13.264  18.747  51.066
71333W        W63257  47.215  35.716  49.669
71334W        W63258  25.253  42.726  53.780
71335W        W63259  36.216  42.689  50.607
71336W        W63260  33.702   0.752  50.133
71337W        W63261   0.754   6.762  53.812
71338W        W63262  11.780  31.730  51.037
71339W        W63263  20.747  21.224  50.161
71340W        W63264  32.716  29.714  53.352
71341W        W63265  21.223  40.726  50.141
71342W        W63266  22.748   9.763  49.703
71343W        W63267   9.742  21.248  51.072
71344W        W63268  19.725  27.744  52.423
71345W        W63269   4.779  25.720  50.129
71346W        W63270  15.743  26.746  50.123
71347W        W63271  29.720  24.256  52.409
71348W        W63272  15.753  35.723  49.695
71349W        W63273  32.697  34.696  52.432
71350W        W63274  28.743  16.244  51.962
71351W        W63275  16.264  24.734  52.433
71352W        W63276  16.759  18.760  51.977
71353W        W63277  30.708  37.206  51.038
71354W        W63278  33.198  11.771  51.515
71355W        W63279  44.709   8.761  51.974
71356W        W63280  12.751  44.677  50.606
71357W        W63281  19.262  37.213  51.515
71358W        W63282   7.251  24.225  49.707
71359W        W63283  46.687  24.724  51.983
71360W        W63284  14.274  33.206  53.354
71361W        W63285  41.215  32.727  52.866
71362W        W63286  10.262   6.749  52.871
71363W        W63287  20.741   6.279  52.881
71364W        W63288  16.723   5.787  51.529
71365W        W63289  42.205  38.702  51.504
71366W        W63290  35.739  25.240  50.617
71367W        W63291  31.219  12.280  50.588
71368W        W63292  42.719   5.262  52.442
71369W        W63293  19.741   6.266  52.883
71370W        W63294  19.734  34.736  51.070
71371W        W63295   3.281  18.224  51.518
71372W        W63296  32.735  40.721  50.147
71373W        W63297  22.726  11.748  53.348
71374W        W63298  45.679  16.763  51.990
71375W        W63299   0.255  17.229  52.408
71376W        W63300  45.722  30.749  53.334
71377W        W63301  11.259   7.256  50.155
71378W        W63302  11.240  15.772  50.584
71379W        W63303   9.739  47.693  51.499
71380W        W63304   1.265  22.716  53.333
71381W        W63305  26.753  23.236  51.064
71382W        W63306  15.766  27.232  50.141
71383W        W63307  28.234  24.223  51.499
71384W        W63308  10.236  17.241  53.784
71385W        W63309  22.228  24.257  51.985
71386W        W63310  28.253  39.193  51.956
71387W        W63311   0.277  24.211  49.707
71388W        W63312   1.792  26.732  51.069
71389W        W63313  41.228  12.253  53.325
71390W        W63314  12.242  43.212  51.036
71391W        W63315  27.216  42.694  52.416
71392W        W63316   7.275  16.752  51.957
71393W        W63317   6.260   1.756  52.872
71394W        W63318  34.241  22.731  51.963
71395W        W63319   3.285  31.221  50.142
71396W        W63320  34.700  29.226  53.791
71397W        W63321   5.281  23.756  52.446
71398W        W63322  48.219  12.732  51.493
71399W        W63323  32.708  25.733  52.881
71400W        W63324  16.732  30.702  49.679
71401W        W63325  39.223  11.260  53.342
71402W        W63326  15.768  13.244  51.966
71403W        W63327  21.257  16.736  51.519
71404W        W63328  20.229  44.703  50.130
71405W        W63329  26.707  34.242  52.868
71406W        W63330  41.724  30.727  51.502
71407W        W63331  43.184   8.274  51.952
71408W        W63332  26.732   4.743  50.611
71409W        W63333  41.231  37.211  50.163
71410W        W63334  39.724  28.230  53.805
71411W        W63335   6.750  41.718  53.802
71412W        W63336  44.716  10.770  52.878
71413W        W63337  20.761  34.240  53.327
71414W        W63338   4.746  37.702  50.582
71415W        W63339   6.275  37.234  52.877
71416W        W63340   1.282   4.260  53.804
71417W        W63341  44.725  27.234  53.322
71418W        W63342  15.235   5.273  53.797
71419W        W63343  31.714   8.762  49.703
71420W        W63344   5.246  23.728  49.666
71421W        W63345  42.183  25.720  53.327
71422W        W63346   8.263  35.730  52.891
71423W        W63347  45.180  40.228  50.125
71424W        W63348  31.235   1.296  52.891
71425W        W63349   6.270  44.191  53.342
71426W        W63350   9.268   1.789  53.327
71427W        W63351  41.212  30.724  53.804
71428W        W63352  16.239   7.774  50.598
71429W        W63353  28.746  35.227  51.529
71430W        W63354  42.208  34.219  51.077
71431W        W63355  30.733  32.247  52.864
71432W        W63356   7.776  40.685  51.062
71433W        W63357  40.224  21.762  51.991
71434W        W63358  32.736  40.726  49.682
71435W        W63359  24.711  39.732  53.355
71436W        W63360  42.219  36.721  49.682
71437W        W63361   3.247  44.181  52.444
71438W        W63362  23.728  41.710  53.805
71439W        W63363  21.744  35.220  50.160
71440W        W63364  44.207   7.241  51.958
71441W        W63365   5.779  23.237  52.902
71442W        W63366  42.692  27.249  49.700
71443W        W63367  22.740   3.253  53.814
71444W        W63368  42.207  33.224  50.599
71445W        W63369  15.265  27.729  50.146
71446W        W63370  34.712  46.702  50.614
71447W        W63371  25.746  22.239  50.124
71448W        W63372   8.240  22.253  51.534
71449W        W63373  36.233   2.749  50.578
71450W        W63374  32.722   6.788  50.150
71451W        W63375  40.702  14.767  51.526
71452W        W63376  21.219  15.227  50.588
71453W        W63377  28.735  28.207  49.683
71454W        W63378  17.238  10.779  50.129
71455W        W63379  21.757  26.746  51.960
71456W        W63380  38.208  16.751  50.584
71457W        W63381  16.772  42.224  51.059
71458W        W63382  19.729  41.687  51.974
71459W        W63383  26.732  27.743  53.330
71460W        W63384  36.723  44.179  53.798
71461W        W63385   4.270  14.255  50.607
71462W        W63386  34.238  18.732  51.499
71463W        W63387  39.729  11.276  52.418
71464W        W63388  10.747  32.710  50.157
71465W        W63389  25.225  13.728  49.705
71466W        W63390  44.678  37.703  52.437
71467W        W63391   9.739   5.751  50.136
71468W        W63392  30.202  11.779  51.967
71469W        W63393  22.243  40.196  52.434
71470W        W63394   5.270  12.729  53.348
71471W        W63395  18.754  31.225  49.664
71472W        W63396  36.707  35.737  52.871
71473W        W63397  30.209  11.246  51.041
71474W        W63398  11.732  40.229  52.438
71475W        W63399  25.226   7.780  50.144
71476W        W63400  24.220  26.249  51.525
71477W        W63401  43.705  45.685  51.512
71478W        W63402  12.775  30.200  53.333
71479W        W63403  38.220  30.732  50.613
71480W        W63404  29.714  25.750  50.611
71481W        W63405  45.221   6.757  51.511
71482W        W63406   4.770  16.242  53.354
71483W        W63407  48.176  32.228  52.429
71484W        W63408  32.731   9.249  50.142
71485W        W63409  17.753   6.264  52.867
71486W        W63410  25.727  13.250  50.131
71487W        W63411  14.254   0.765  52.886
71488W        W63412  41.195  28.210  51.948
71489W        W63413   0.797  37.192  50.165
71490W        W63414   9.238  20.252  50.126
71491W        W63415  43.694  20.227  49.681
71492W        W63416  27.211  12.253  53.347
71493W        W63417  47.198  39.689  51.983
71494W        W63418  38.728  13.267  53.335
71495W        W63419   1.292  25.242  53.802
71496W        W63420  11.742  24.233  53.783
71497W        W63421  35.724  22.230  52.416
71498W        W63422   7.240  43.182  52.888
71499W        W63423  19.758  19.256  51.525
71500W        W63424  28.250  19.267  51.532
71501W        W63425  24.723  39.734  53.804
71502W        W63426  21.253   9.766  51.495
71503W        W63427  25.746  30.225  52.427
71504W        W63428  31.222  21.252  51.048
71505W        W63429   6.778   0.756  51.507
71506W        W63430   2.754   5.282  52.423
71507W        W63431  23.236   7.287  51.535
71508W        W63432  14.266   2.275  51.051
71509W        W63433  10.764   2.249  52.882
71510W        W63434  19.237  19.261  52.448
71511W        W63435   0.795  22.241  53.807
71512W        W63436  25.726  37.228  52.438
71513W        W63437  43.706  10.259  52.881
71514W        W63438   0.752   8.253  53.799
71515W        W63439  21.261  47.212  51.493
71516W        W63440  40.188  17.767  51.060
71517W        W63441  22.755  39.212  49.701
71518W        W63442  11.277  35.721  52.424
71519W        W63443   8.237  13.761  51.526
71520W        W63444   8.268   9.266  53.326
71521W        W63445  19.722  11.235  51.534
71522W        W63446   4.276  20.732  52.404
71523W        W63447  25.242  34.229  53.817
71524W        W63448  40.215   6.282  53.354
71525W        W63449  14.237  19.254  51.950
71526W        W63450  16.271  14.227  53.776
71527W        W63451  27.233  29.725  52.873
71528W        W63452  20.755  36.694  52.882
71529W        W63453   5.765  30.243  51.498
71530W        W63454  19.736   7.756  52.434
71531W        W63455  13.271   0.279  51.952
71532W        W63456   5.762   7.280  52.448
71533W        W63457  41.192   9.252  50.135
71534W        W63458  37.208  17.754  51.515
71535W        W63459  37.215   5.747  50.584
71536W        W63460  13.267  47.192  51.491
71537W        W63461  27.712  32.739  50.617
71538W        W63462   7.260  30.230  50.155
71539W        W63463  37.706  33.230  51.952
71540W        W63464   1.276  36.695  49.689
71541W        W63465   7.742   3.287  53.339
71542W        W63466  22.739  24.716  52.874
71543W        W63467  26.746   9.265  52.859
71544W        W63468   4.250  29.742  50.136
71545W        W63469   0.794  15.272  52.444
71546W        W63470  23.218  26.708  49.691
71547W        W63471  24.759  17.738  52.901
71548W        W63472   1.769  44.221  49.708
71549W        W63473   2.775  38.695  53.813
71550W        W63474  12.762  23.735  51.960
71551W        W63475  27.723  33.218  50.619
71552W        W63476  41.704  28.744  53.358
71553W        W63477   9.281   8.736  52.860
71554W        W63478  11.739   3.275  50.611
71555W        W63479  16.740   3.247  51.956
71556W        W63480   8.744   0.298  53.794
71557W        W63481  15.250  10.265  49.691
71558W        W63482  19.242  22.720  52.890
71559W        W63483  13.271   1.269  53.322
71560W        W63484  22.248  37.713  53.807
71561W        W63485  36.236  29.250  51.067
71562W        W63486   9.265  13.272  51.515
71563W        W63487  18.733  28.735  53.814
71564W        W63488  29.235  30.746  52.870
71565W        W63489  35.720  47.182  49.706
71566W        W63490  34.728  44.183  51.496
71567W        W63491  13.744  10.276  51.959
71568W        W63492  19.728  19.255  51.038
71569W        W63493  25.724  15.740  52.405
71570W        W63494  37.193  35.704  50.143
71571W        W63495  48.187  26.749  53.800
71572W        W63496   1.794   0.781  49.687
71573W        W63497  32.721  19.263  51.970
71574W        W63498  33.719  28.244  50.622
71575W        W63499  17.261  27.247  50.158
71576W        W63500  38.204  31.727  50.578
71577W        W63501  35.218  34.234  51.061
71578W        W63502  23.219  20.761  52.420
71579W        W63503  20.235   2.768  51.502
71580W        W63504  42.221  13.729  50.595
71581W        W63505  17.246  25.742  49.666
71582W        W63506   5.244  37.707  51.964
71583W        W63507  10.739   4.763  50.140
71584W        W63508  19.264  25.231  52.875
71585W        W63509   4.262  34.209  50.129
71586W        W63510  37.691  32.230  50.598
71587W        W63511  24.260  28.750  49.678
71588W        W63512  11.745  41.713  51.055
71589W        W63513  30.224  39.209  52.881
71590W        W63514  23.719   5.282  53.814
71591W        W63515  35.700  42.701  53.361
71592W        W63516   0.288  30.711  49.669
71593W        W63517  24.710   1.249  51.524
71594W        W63518  18.735  15.735  51.515
71595W        W63519   0.278   2.763  51.991
71596W        W63520  22.263  27.737  51.957
71597W        W63521  38.721  39.715  52.440
71598W        W63522  12.266   3.291  49.701
71599W        W63523   7.768  11.776  52.411
71600W        W63524  26.726  23.226  52.894
71601W        W63525  40.204  32.730  51.953
71602W        W63526  26.228  33.731  51.535
71603W        W63527  37.691  37.716  52.416
71604W        W63528  19.257  27.239  50.154
71605W        W63529  42.220  23.256  51.060
71606W        W63530  29.241  20.250  49.665
71607W        W63531  15.730  40.688  52.870
71608W        W63532  33.719  21.236  52.899
71609W        W63533   2.262  12.254  53.360
71610W        W63534  19.735   6.281  50.607
71611W        W63535   6.289  24.753  51.989
71612W        W63536   7.269   8.252  50.128
71613W        W63537   0.271  33.720  52.880
71614W        W63538  28.730  28.714  52.437
71615W        W63539   4.782  34.239  50.612
71616W        W63540  45.202  25.717  51.990
71617W        W63541   9.249  17.242  53.333
71618W        W63542  17.730  20.243  53.792
71619W        W63543  21.740  35.202  53.802
71620W        W63544  42.710   1.259  53.332
71621W        W63545  22.727   8.764  51.990
71622W        W63546  36.203  27.249  52.866
71623W        W63547   1.292   5.758  52.441
71624W        W63548  45.675   6.773  51.049
71625W        W63549   3.253  13.775  51.034
71626W        W63550  45.688  21.742  52.866
71627W        W63551  24.212  24.259  52.905
71628W        W63552  39.213  45.715  51.491
71629W        W63553  32.732   8.748  50.622
71630W        W63554  20.738  28.233  50.622
71631W        W63555   5.290  11.732  51.037
71632W        W63556  13.272  41.725  50.622
71633W        W63557  35.218  25.248  51.532
71634W        W63558  30.234   5.263  51.037
71635W        W63559  42.703  23.236  52.871
71636W        W63560  22.748  10.270  51.958
71637W        W63561  40.188  25.242  51.490
71638W        W63562  13.246  21.229  52.872
71639W        W63563  11.765  25.212  51.972
71640W        W63564  15.743   5.774  51.040
71641W        W63565  35.712  32.701  51.039
71642W        W63566  41.191  20.225  50.130
71643W        W63567  13.259  32.709  53.799
71644W        W63568  36.226  38.216  52.435
71645W        W63569   6.739  43.225  51.053
71646W        W63570  23.213  42.228  53.779
71647W        W63571  21.241  29.742  52.897
71648W        W63572  48.177  41.695  52.860
71649W        W63573  14.259   1.756  52.874
71650W        W63574  43.705  35.221  52.860
71651W        W63575   8.253  17.770  51.521
71652W        W63576  21.749  44.188  52.892
71653W        W63577  39.212  42.197  51.049
71654W        W63578  21.218  40.189  51.972
71655W        W63579  41.220  46.176  51.078
71656W        W63580  26.238  13.772  51.035
71657W        W63581  42.186  22.245  53.798
71658W        W63582  13.774  35.693  52.903
71659W        W63583   0.258  11.264  51.053
71660W        W63584   7.248  34.693  50.131
71661W        W63585  11.779  19.758  49.677
71662W        W63586  12.736   6.750  51.983
71663W        W63587  18.257  18.731  52.868
71664W        W63588  38.208   3.788  52.879
71665W        W63589  46.722  27.254  53.328
71666W        W63590  40.206  18.757  51.979
71667W        W63591  33.226  17.763  51.059
71668W        W63592  26.736  25.744  51.947
71669W        W63593  38.716  28.735  49.684
71670W        W63594  38.192  28.721  51.962
71671W        W63595  42.206  16.271  51.963
71672W        W63596  40.214  36.726  51.060
71673W        W63597  15.749  22.228  49.676
71674W        W63598  15.263  39.217  51.520
71675W        W63599   7.253  33.702  52.430
71676W        W63600  47.218   0.273  51.498
71677W        W63601  12.235   6.274  52.446
71678W        W63602  30.748  35.691  50.127
71679W        W63603  32.200  12.270  53.357
71680W        W63604  41.689  24.746  52.443
71681W        W63605   2.781  47.207  53.786
71682W        W63606   2.758  14.770  52.405
71683W        W63607   0.794   6.782  49.670
71684W        W63608   7.271   8.748  49.705
71685W        W63609  33.208  29.742  49.702
71686W        W63610  27.738  25.753  52.425
71687W        W63611   1.760  36.709  52.430
71688W        W63612   2.754  29.239  50.593
71689W        W63613   7.741  47.203  50.158
71690W        W63614  35.722  10.249  51.984
71691W        W63615  45.186  30.222  53.327
71692W        W63616  29.210  26.215  52.872
71693W        W63617  30.717   1.286  53.806
71694W        W63618  16.756  37.692  49.682
71695W        W63619  47.212   2.257  50.601
71696W        W63620  47.186  12.737  50.597
71697W        W63621  24.741   9.280  52.439
71698W        W63622  38.198  17.222  51.534
71699W        W63623  26.238  36.704  53.817
71700W        W63624  34.714  41.186  52.433
71701W        W63625  19.738   0.796  50.592
71702W        W63626  36.703  41.201  51.974
71703W        W63627  29.705   3.746  51.500
71704W        W63628   7.751  19.261  52.880
71705W        W63629  23.233  10.270  52.902
71706W        W63630  41.724  37.208  51.951
71707W        W63631  29.234  42.183  50.583
71708W        W63632   9.258   1.784  52.434
71709W        W63633  37.234  40.233  53.361
71710W        W63634  14.733  27.233  51.987
71711W        W63635  21.237  12.252  53.799
71712W        W63636  28.708  21.243  51.984
71713W        W63637  33.231  25.711  53.332
71714W        W63638  13.249  26.724  50.157
71715W        W63639  22.257  43.703  53.358
71716W        W63640  21.215   7.764  50.610
71717W        W63641  39.718  40.690  50.603
71718W        W63642  39.230  38.735  51.056
71719W        W63643  25.710  34.215  52.415
71720W        W63644  35.695  20.719  50.143
71721W        W63645   3.293  47.191  49.689
71722W        W63646  11.746   6.288  53.321
71723W        W63647  16.262  38.688  50.155
71724W        W63648  44.193  10.260  53.779
71725W        W63649  12.764  42.224  49.698
71726W        W63650  43.215  12.777  51.523
71727W        W63651  21.729   8.273  53.320
71728W        W63652  17.243  33.730  50.156
71729W        W63653  38.205  18.222  51.492
71730W        W63654   5.777  19.261  53.799
71731W        W63655  25.754  24.224  50.132
71732W        W63656  10.256   0.785  51.034
71733W        W63657  38.711  16.724  51.509
71734W        W63658  34.718  13.756  52.423
71735W        W63659  40.686   4.778  52.869
71736W        W63660   5.286  46.190  52.406
71737W        W63661   9.250  44.688  53.772
71738W        W63662   3.773  22.741  51.059
71739W        W63663  47.674  39.194  52.437
71740W        W63664  36.732  41.684  52.899
71741W        W63665  20.738   8.252  50.165
71742W        W63666   8.245  26.706  50.607
71743W        W63667  24.252  37.727  52.436
71744W        W63668  26.254  35.221  50.592
71745W        W63669  45.694  17.242  50.145
71746W        W63670  16.769  27.214  52.901
71747W        W63671   3.265  19.762  49.674
71748W        W63672  24.238   1.255  52.890
71749W        W63673   2.772  22.220  51.054
71750W        W63674  26.222   8.272  52.407
71751W        W63675   1.775  24.713  52.880
71752W        W63676  26.743  42.229  52.416
71753W        W63677  30.748  37.212  51.962
71754W        W63678   1.772   7.755  52.408
71755W        W63679   9.271  38.707  50.160
71756W        W63680  31.245  14.727  51.059
71757W        W63681   3.250   1.780  51.497
71758W        W63682  21.735  37.736  53.339
71759W        W63683  16.728  44.701  52.439
71760W        W63684  20.244  18.755  51.505
71761W        W63685  14.760  21.230  51.062
71762W        W63686  24.254  41.226  49.665
71763W        W63687  18.736   6.742  51.077
71764W        W63688  23.758   3.259  52.889
71765W        W63689   8.751  32.704  53.357
71766W        W63690  46.213  37.728  51.992
71767W        W63691   3.257  39.729  50.136
71768W        W63692   2.272  11.733  51.074
71769W        W63693   3.280  21.753  50.623
71770W        W63694  42.193  33.226  51.508
71771W        W63695   4.279  23.254  51.958
71772W        W63696  27.237  41.713  52.894
71773W        W63697  30.231   7.743  49.689
71774W        W63698   3.272  37.698  51.073
71775W        W63699  33.221  16.223  51.989
71776W        W63700  35.210  14.775  52.904
71777W        W63701  43.200  40.698  50.601
71778W        W63702  43.186  36.706  50.586
71779W        W63703   5.768  32.729  50.122
71780W        W63704  15.758  22.236  50.599
71781W        W63705  10.770   6.743  50.160
71782W        W63706  12.278  47.714  52.427
71783W        W63707  38.703  42.703  50.613
71784W        W63708   3.280  24.241  53.335
71785W        W63709  41.684  10.748  51.515
71786W        W63710  40.212  24.716  50.596
71787W        W63711  16.737  14.752  52.410
71788W        W63712  24.221  48.190  50.612
71789W        W63713  30.739   0.265  51.503
71790W        W63714  33.215  35.738  51.981
71791W        W63715  29.236  31.726  51.493
71792W        W63716  35.700  39.228  51.036
71793W        W63717  10.251  26.740  52.436
71794W        W63718   2.751  37.189  51.956
71795W        W63719  29.750  45.681  53.334
71796W        W63720   5.764  47.672  53.349
71797W        W63721   8.252  37.192  51.987
71798W        W63722  24.728  21.721  49.671
71799W        W63723   1.270   5.278  53.334
71800W        W63724   0.782  44.707  52.433
71801W        W63725  47.178   2.285  52.409
71802W        W63726  33.723  17.270  51.033
71803W        W63727  45.204  32.725  49.709
71804W        W63728  21.219  22.213  52.426
71805W        W63729  31.737  33.197  49.702
71806W        W63730   6.277  17.734  50.163
71807W        W63731  25.216   7.261  52.873
71808W        W63732  43.224   5.780  49.692
71809W        W63733  33.739   7.745  50.594
71810W        W63734  31.221  30.715  49.692
71811W        W63735   8.779  25.711  51.950
71812W        W63736  17.766  15.272  53.350
71813W        W63737  34.731  41.703  52.429
71814W        W63738  16.251  33.198  51.979
71815W        W63739  23.251   0.260  51.516
71816W        W63740  46.681  27.729  49.695
71817W        W63741  24.747  29.727  53.318
71818W        W63742  15.250  46.208  51.037
71819W        W63743  25.731  44.698  50.146
71820W        W63744  11.736   9.244  50.141
71821W        W63745   5.753  47.700  51.497
71822W        W63746  24.749  34.229  51.069
71823W        W63747  10.765   9.781  51.970
71824W        W63748  43.225   9.271  51.078
71825W        W63749  17.749  33.243  53.801
71826W        W63750  25.210  31.701  53.353
71827W        W63751  10.741  17.258  50.129
71828W        W63752  33.723  43.678  51.984
71829W        W63753  21.243  41.183  51.060
71830W        W63754  26.235  43.211  51.532
71831W        W63755  36.734  20.746  53.333
71832W        W63756  28.732   8.780  53.810
71833W        W63757  33.197  12.237  53.345
71834W        W63758  39.229  13.762  49.681
71835W        W63759  38.728  30.723  51.044
71836W        W63760  33.244  28.752  52.438
71837W        W63761  37.689  27.255  53.358
71838W        W63762  31.241  41.193  51.969
71839W        W63763  14.265  45.678  50.148
71840W        W63764  26.736  30.744  52.431
71841W        W63765  41.692  43.694  50.601
71842W        W63766  34.194  23.237  51.500
71843W        W63767  12.751  19.247  52.427
71844W        W63768  48.197  31.201  53.332
71845W        W63769   3.294   1.296  50.620
71846W        W63770  25.727  20.749  51.517
71847W        W63771  12.745  23.221  51.059
71848W        W63772  16.261   2.767  50.158
71849W        W63773  29.709  23.751  53.344
71850W        W63774   3.793  44.678  52.888
71851W        W63775   5.751   6.270  52.412
71852W        W63776  31.204  23.244  50.137
71853W        W63777  45.183  40.717  49.670
71854W        W63778  13.741  13.269  52.414
71855W        W63779   5.287  19.267  51.521
71856W        W63780  13.229  30.717  53.804
71857W        W63781   9.272  24.719  53.331
71858W        W63782  48.199   8.242  52.426
71859W        W63783   6.267  10.759  52.435
71860W        W63784  42.203  33.704  50.591
71861W        W63785   3.285  45.683  50.141
71862W        W63786  44.197  16.759  50.137
71863W        W63787  34.239  43.194  53.358
71864W        W63788  28.721   3.747  52.870
71865W        W63789  13.268   4.743  51.530
71866W        W63790  31.238  24.713  52.444
71867W        W63791  43.195  39.687  52.408
71868W        W63792  21.243  28.231  50.123
71869W        W63793  41.202  46.219  50.603
71870W        W63794  13.756  32.706  51.506
71871W        W63795  46.181  42.215  51.063
71872W        W63796  24.245   9.749  50.578
71873W        W63797  26.719  47.176  53.357
71874W        W63798  30.744   3.277  51.067
71875W        W63799  31.216  44.699  51.066
71876W        W63800  24.730  34.711  50.124
71877W        W63801  24.216  32.709  50.148
71878W        W63802  26.745  46.202  49.688
71879W        W63803   8.240  43.193  51.074
71880W        W63804  35.726   9.242  50.148
71881W        W63805  24.712  25.724  51.054
71882W        W63806  38.704  21.750  51.527
71883W        W63807  23.737   9.753  51.061
71884W        W63808   3.757   3.280  52.870
71885W        W63809  16.733  30.225  51.495
71886W        W63810  41.715  41.219  52.412
71887W        W63811  33.723   1.287  53.336
71888W        W63812   2.754  40.209  51.045
71889W        W63813  42.197  28.241  51.074
71890W        W63814  35.734  23.735  51.960
71891W        W63815  24.750   5.741  51.064
71892W        W63816  36.196  47.182  50.582
71893W        W63817  28.221   7.743  51.504
71894W        W63818  43.180  10.275  50.612
71895W        W63819  30.210  47.191  49.681
71896W        W63820   1.764  19.757  51.055
71897W        W63821  33.231  26.718  51.529
71898W        W63822  16.750  34.235  51.991
71899W        W63823  40.216  14.256  53.335
71900W        W63824   7.739  23.234  51.534
71901W        W63825  12.771  21.220  51.068
71902W        W63826  12.246   9.243  52.416
71903W        W63827  16.261  27.743  49.709
71904W        W63828  27.238  17.750  52.881
71905W        W63829  32.738  21.748  52.902
71906W        W63830  15.254  41.195  53.773
71907W        W63831   1.268  34.704  53.786
71908W        W63832   3.262   0.257  53.321
71909W        W63833  46.705  17.227  52.426
71910W        W63834  40.709  43.186  53.317
71911W        W63835  23.733   9.768  51.991
71912W        W63836  40.710  17.733  51.055
71913W        W63837  41.703   6.241  51.507
71914W        W63838  16.254  41.211  52.435
71915W        W63839  47.703  37.705  52.904
71916W        W63840  18.226  28.248  50.134
71917W        W63841   4.787   8.276  51.070
71918W        W63842  24.212   3.271  51.979
71919W        W63843  33.736  38.718  52.411
71920W        W63844  46.203  25.752  53.333
71921W        W63845  31.730  30.739  50.122
71922W        W63846   0.777  31.747  53.810
71923W        W63847  39.211  17.726  50.153
71924W        W63848  16.758  28.245  51.513
71925W        W63849   6.784  38.731  53.341
71926W        W63850   0.253   8.747  50.162
71927W        W63851  46.693  44.687  50.141
71928W        W63852  33.726  43.211  50.604
71929W        W63853  45.218  28.236  51.965
71930W        W63854  42.184   6.248  51.960
71931W        W63855   1.288  44.184  53.327
71932W        W63856  36.239  44.677  51.047
71933W        W63857  38.702  23.231  51.073
71934W        W63858  43.221  22.224  53.793
71935W        W63859   0.255  19.744  51.054
71936W        W63860   3.286   2.253  50.588
71937W        W63861  32.725   8.743  53.793
71938W        W63862  15.255  42.729  53.799
71939W        W63863  44.215  19.744  52.420
71940W        W63864  33.218   6.278  52.866
71941W        W63865   0.763  19.258  49.665
71942W        W63866  11.773  46.199  51.513
71943W        W63867  39.700   9.752  51.991
71944W        W63868  24.724  12.240  50.133
71945W        W63869  37.238  20.755  50.607
71946W        W63870  12.245  36.214  51.533
71947W        W63871  18.229  44.195  51.042
71948W        W63872  17.261   2.291  51.975
71949W        W63873   9.240  13.263  53.327
71950W        W63874   5.284  15.763  49.670
71951W        W63875  10.771  14.746  50.601
71952W        W63876   2.285   3.258  49.702
71953W        W63877  41.200  20.764  52.899
71954W        W63878   9.745  41.202  51.065
71955W        W63879  41.192  46.179  52.403
71956W        W63880  43.216  19.749  53.784
71957W        W63881  18.760  12.767  52.403
71958W        W63882  18.734  29.208  51.962
71959W        W63883  18.252  10.743  52.410
71960W        W63884  24.255  43.199  51.509
71961W        W63885  37.194  34.221  51.067
71962W        W63886  38.693  14.746  49.687
71963W        W63887  18.733  18.740  53.351
71964W        W63888  37.714  26.749  50.612
71965W        W63889   0.783  29.740  53.323
71966W        W63890  35.736  35.727  50.594
71967W        W63891  34.226   4.778  50.155
71968W        W63892  30.232  20.720  52.874
71969W        W63893  28.740   2.264  53.781
71970W        W63894  21.744  15.726  52.892
71971W        W63895   5.779  39.234  52.403
71972W        W63896  39.203  17.228  53.331
71973W        W63897  26.744  42.214  53.335
71974W        W63898  48.218  44.713  53.357
71975W        W63899  30.700  40.728  51.050
71976W        W63900  19.729  34.222  50.599
71977W        W63901  42.197  25.243  53.321
71978W        W63902   3.271  46.180  52.414
71979W        W63903  46.690  19.765  53.803
71980W        W63904  45.201  37.703  50.153
71981W        W63905  19.229  43.227  51.055
71982W        W63906  29.202   1.262  51.980
71983W        W63907  12.744  30.233  50.617
71984W        W63908  32.244   2.781  53.317
71985W        W63909   9.243  17.724  52.893
71986W        W63910  32.729  39.211  51.989
71987W        W63911  26.230  31.207  51.500
71988W        W63912   9.734  24.245  50.593
71989W        W63913  27.227  45.212  50.607
71990W        W63914  25.256  46.204  50.136
71991W        W63915  17.723  28.241  51.041
71992W        W63916  21.714  23.261  51.526
71993W        W63917   6.265  34.228  53.350
71994W        W63918  40.211  11.734  53.327
71995W        W63919   8.255  11.773  53.804
71996W        W63920   8.277   4.760  50.611
71997W        W63921  27.744  33.706  51.061
71998W        W63922  21.718   5.745  52.418
71999W        W63923  40.722  46.198  50.137
72000W        W63924  17.255  27.223  51.959
72001W        W63925  25.217  40.203  51.037
72002W        W63926   2.754  31.717  49.696
72003W        W63927  32.712  35.721  51.992
72004W        W63928  43.193  44.208  49.707
72005W        W63929  39.224  30.729  50.598
72006W        W63930  23.214  14.735  53.324
72007W        W63931  21.724  29.725  50.586
72008W        W63932   9.254  15.768  51.533
72009W        W63933  36.716   9.237  51.953
72010W        W63934  44.705   6.741  53.804
72011W        W63935  48.191  30.234  50.578
72012W        W63936  39.729   9.281  50.583
72013W        W63937   3.285  18.245  53.816
72014W        W63938   7.775  48.179  51.495
72015W        W63939  15.237  44.220  52.424
72016W        W63940  32.717  26.749  53.796
72017W        W63941  29.750   6.743  53.816
72018W        W63942  21.763  10.276  51.975
72019W        W63943  19.723  15.227  52.435
72020W        W63944  27.248  32.215  53.789
72021W        W63945  40.222  35.712  53.799
72022W        W63946  15.729  20.222  53.815
72023W        W63947  36.725  43.191  51.039
72024W        W63948  30.705  12.777  52.427
72025W        W63949  23.228  10.766  51.502
72026W        W63950   8.263  45.683  53.796
72027W        W63951  46.678  25.742  51.988
72028W        W63952  33.242  23.227  50.135
72029W        W63953  32.202  44.715  52.423
72030W        W63954  37.231   0.269  49.680
72031W        W63955   4.770  17.257  49.684
72032W        W63956  17.744  28.234  50.578
72033W        W63957  25.240  30.221  51.492
72034W        W63958  43.708  29.728  50.590
72035W        W63959  10.254   2.278  51.964
72036W        W63960  32.199  21.219  53.332
72037W        W63961  16.272   0.768  52.411
72038W        W63962  43.188   8.762  51.063
72039W        W63963   7.267   1.752  51.988
72040W        W63964  47.716  42.703  50.595
72041W        W63965   4.277  39.707  49.681
72042W        W63966  19.245  48.197  52.877
72043W        W63967   7.239   6.273  53.341
72044W        W63968  30.219  26.718  52.880
72045W        W63969  33.208  45.679  52.866
72046W        W63970  39.231  24.751  52.428
72047W        W63971  27.708   4.273  53.357
72048W        W63972   4.269  28.218  52.428
72049W        W63973  17.761  24.719  51.950
72050W        W63974  25.710   1.788  52.440
72051W        W63975  12.778   1.285  51.535
72052W        W63976  44.692   3.259  52.867
72053W        W63977   0.288   8.779  52.861
72054W        W63978  10.778  31.731  49.702
72055W        W63979  24.743  30.224  53.779
72056W        W63980  16.760  29.708  53.338
72057W        W63981   1.248  23.230  50.579
72058W        W63982   1.795   1.770  51.948
72059W        W63983  14.735  30.739  52.881
72060W        W63984  20.240   7.283  51.989
72061W        W63985  46.211   6.269  52.436
72062W        W63986  39.713   0.784  51.972
72063W        W63987   7.781  13.769  50.135
72064W        W63988  24.751  44.700  51.982
72065W        W63989  36.717  40.206  52.901
72066W        W63990   4.282  12.756  50.133
72067W        W63991  28.210   1.756  50.143
72068W        W63992  21.236  24.738  50.138
72069W        W63993  23.219   9.236  51.949
72070W        W63994  11.248  23.721  49.666
72071W        W63995   1.251   6.242  51.963
72072W        W63996  21.249  27.708  52.864
72073W        W63997  10.773   3.780  49.682
72074W        W63998   2.784  29.236  51.514
72075W        W63999  39.186  22.753  53.779
72076W        W64000  26.736  16.747  52.877
72077W        W64001  36.214  42.208  53.777
72078W        W64002  25.730  28.247  52.880
72079W        W64003  35.205   4.747  52.895
72080W        W64004  24.228  35.236  51.504
72081W        W64005  32.209  39.232  50.605
72082W        W64006  45.712  18.759  53.322
72083W        W64007   6.746  20.238  51.953
72084W        W64008  28.232  14.273  52.431
72085W        W64009  33.224  33.214  51.075
72086W        W64010   6.275  30.249  51.041
72087W        W64011  16.264  44.688  53.810
72088W        W64012   8.285   5.741  50.165
72089W        W64013   5.767  35.740  50.592
72090W        W64014  25.231  22.219  53.352
72091W        W64015  43.694   1.279  49.691
72092W        W64016  45.697  42.183  51.966
72093W        W64017   8.244   2.752  51.532
72094W        W64018  29.726   8.271  51.496
72095W        W64019  42.185  18.225  51.986
72096W        W64020  21.249  46.215  52.445
72097W        W64021   1.273  40.731  50.591
72098W        W64022  42.702  12.757  51.071
72099W        W64023  45.201  19.741  52.403
72100W        W64024   5.285  48.171  53.347
72101W        W64025  35.233  44.223  52.881
72102W        W64026   5.752  25.219  51.074
72103W        W64027  37.216  43.691  53.336
72104W        W64028  29.740   3.773  53.782
72105W        W64029  25.222  38.221  51.499
72106W        W64030  18.262   7.783  53.354
72107W        W64031  12.260  21.222  51.530
72108W        W64032  29.232  21.721  51.045
72109W        W64033  22.220  27.248  50.607
72110W        W64034  32.244   3.256  52.410
72111W        W64035  42.182  17.757  53.792
72112W        W64036  38.713  22.761  51.516
72113W        W64037   4.285  17.763  50.128
72114W        W64038  28.738  28.737  53.331
72115W        W64039   9.734  31.235  53.324
72116W        W64040  48.172  18.748  51.051
72117W        W64041  40.709   5.253  52.431
72118W        W64042  12.234  37.732  50.125
72119W        W64043   2.275  13.749  52.870
72120W        W64044  45.703  47.700  50.596
72121W        W64045  19.765  18.760  51.060
72122W        W64046  11.733  18.768  49.666
72123W        W64047  26.233   6.769  49.694
72124W        W64048  25.256   5.260  51.989
72125W        W64049   2.262  47.694  50.155
72126W        W64050  41.714  33.229  52.423
72127W        W64051   5.766  40.188  53.774
72128W        W64052  16.767  32.215  52.904
72129W        W64053   0.778   7.756  49.693
72130W        W64054  35.204  11.233  51.534
72131W        W64055  42.720  46.712  53.332
72132W        W64056   6.772  15.738  51.493
72133W        W64057  18.233  25.755  50.142
72134W        W64058  27.741  44.205  51.036
72135W        W64059  16.232   2.256  52.885
72136W        W64060   1.763  42.187  52.436
72137W        W64061   5.770   7.738  50.606
72138W        W64062  22.226  40.192  51.065
72139W        W64063  18.764  23.742  53.341
72140W        W64064  24.728  11.754  49.674
72141W        W64065  31.200  11.241  52.409
72142W        W64066  27.741  41.727  51.043
72143W        W64067   4.248  25.715  50.160
72144W        W64068  15.243  25.750  51.493
72145W        W64069  44.179   3.275  49.704
72146W        W64070  18.722  28.743  49.707
72147W        W64071  48.193  36.729  53.335
72148W        W64072  10.733   7.739  51.040
72149W        W64073  45.213  14.229  49.683
72150W        W64074  12.257  10.774  51.063
72151W        W64075  11.248  35.737  50.131
72152W        W64076  22.722  26.225  52.412
72153W        W64077  48.184   6.259  53.350
72154W        W64078  32.734  32.729  52.876
72155W        W64079  22.230  38.211  51.517
72156W        W64080  18.257  41.224  51.065
72157W        W64081  11.263  41.711  49.676
72158W        W64082   8.774   8.742  51.050
72159W        W64083  31.244  38.723  50.152
72160W        W64084  18.723  41.725  51.068
72161W        W64085  32.205  41.682  50.135
72162W        W64086  37.725  44.689  49.695
72163W        W64087  26.749  39.202  50.618
72164W        W64088  13.772   4.757  49.702
72165W        W64089  17.226  34.710  53.357
72166W        W64090  28.221  40.720  52.411
72167W        W64091  10.776  45.197  50.131
72168W        W64092  25.714   7.254  52.879
72169W        W64093  11.234  14.227  51.506
72170W        W64094  26.730  40.710  53.356
72171W        W64095  29.738  41.684  52.420
72172W        W64096   3.765  11.278  53.351
72173W        W64097  39.224  24.746  53.341
72174W        W64098  18.227  41.195  51.974
72175W        W64099  11.273  41.705  53.318
72176W        W64100  39.687  42.709  51.040
72177W        W64101  46.697  43.204  53.787
72178W        W64102  29.225  22.761  53.793
72179W        W64103  18.758  29.739  53.337
72180W        W64104   2.266  47.704  52.413
72181W        W64105  30.745  27.748  52.884
72182W        W64106  32.716  23.747  49.683
72183W        W64107   4.250  26.726  53.786
72184W        W64108  17.741  33.204  50.134
72185W        W64109  32.728   7.246  51.976
72186W        W64110  21.261   5.774  53.343
72187W        W64111  32.233  15.725  51.972
72188W        W64112   0.260  37.219  53.319
72189W        W64113   3.784  48.198  52.871
72190W        W64114  26.255   9.255  53.780
72191W        W64115  20.233  12.774  52.860
72192W        W64116  18.245  34.239  53.327
72193W        W64117  28.211  36.200  51.528
72194W        W64118  33.232  41.196  51.055
72195W        W64119  43.720  30.243  49.686
72196W        W64120  32.697  14.736  52.435
72197W        W64121   5.288  42.713  50.143
72198W        W64122  23.229  37.699  50.158
72199W        W64123  18.743  16.248  52.882
72200W        W64124  32.704   5.787  49.682
72201W        W64125  30.739  47.681  51.062
72202W        W64126  12.738  19.257  51.534
72203W        W64127   3.783  47.711  51.991
72204W        W64128  10.764  20.257  51.972
72205W        W64129   5.270   9.768  53.317
72206W        W64130  11.268  18.248  51.534
72207W        W64131  40.202  27.724  52.861
72208W        W64132  10.775   7.244  52.418
72209W        W64133  23.746  18.741  51.981
72210W        W64134  18.763  31.730  52.876
72211W        W64135  24.227  27.251  50.608
72212W        W64136  37.722  43.216  51.511
72213W        W64137   9.250  19.260  51.075
72214W        W64138   8.755  30.738  50.139
72215W        W64139  38.194  46.221  53.784
72216W        W64140  16.755  42.683  51.491
72217W        W64141  30.217  29.219  53.345
72218W        W64142  21.719  18.757  51.065
72219W        W64143  10.761  48.171  53.325
72220W        W64144  30.702   2.258  51.072
72221W        W64145  44.189  29.719  52.412
72222W        W64146  39.689  32.239  49.697
72223W        W64147   7.270  47.714  51.957
72224W        W64148  35.724   6.248  52.873
72225W        W64149  13.258  15.256  51.954
72226W        W64150  17.231  19.718  50.587
72227W        W64151  11.263   5.743  51.055
72228W        W64152  39.198   0.266  52.897
72229W        W64153  32.703   4.261  50.583
72230W        W64154  47.719   5.247  50.622
72231W        W64155  24.235   3.289  53.343
72232W        W64156  39.200  41.201  50.127
72233W        W64157  45.202  47.213  52.411
72234W        W64158  22.743  34.728  49.669
72235W        W64159  21.760  31.242  50.161
72236W        W64160  21.226  40.217  50.577
72237W        W64161  37.234  18.221  50.609
72238W        W64162   6.269  20.750  50.620
72239W        W64163  27.246  22.246  53.786
72240W        W64164  47.700  38.201  51.955
72241W        W64165  30.706  24.749  50.619
72242W        W64166  14.768  32.742  52.427
72243W        W64167  40.727  17.728  53.800
72244W        W64168  14.253  19.734  50.587
72245W        W64169  45.681  12.267  50.165
72246W        W64170  29.224  28.717  51.522
72247W        W64171  24.260  29.746  49.690
72248W        W64172   0.296  19.724  49.691
72249W        W64173  12.236   9.249  53.796
72250W        W64174  10.773  40.225  52.419
72251W        W64175   6.265  17.756  53.795
72252W        W64176   4.768   6.754  53.773
72253W        W64177  43.208  24.736  52.417
72254W        W64178  43.199  35.692  51.979
72255W        W64179  40.232  11.241  52.417
72256W        W64180  48.207  37.707  50.163
72257W        W64181  27.750  37.690  53.354
72258W        W64182  26.753  25.217  51.505
72259W        W64183  33.243   7.769  50.579
72260W        W64184  37.219  25.753  52.867
72261W        W64185  46.202  41.714  50.583
72262W        W64186  23.713  30.739  53.790
72263W        W64187  29.707  19.240  49.672
72264W        W64188  26.743  31.212  51.987
72265W        W64189  45.192  21.255  50.147
72266W        W64190   5.756  39.713  51.515
72267W        W64191  45.215  32.234  53.776
72268W        W64192  44.680  24.224  52.877
72269W        W64193  30.229  30.226  52.445
72270W        W64194  24.756  21.750  52.877
72271W        W64195  13.261  10.777  51.494
72272W        W64196   7.753  41.697  51.533
72273W        W64197  33.198   7.242  51.064
72274W        W64198   0.784  20.757  51.493
72275W        W64199  40.227  11.275  50.142
72276W        W64200  34.219  12.738  49.707
72277W        W64201  10.738  44.224  53.794
72278W        W64202  47.689  25.719  50.601
72279W        W64203  33.208  25.244  49.689
72280W        W64204   4.278  46.203  50.578
72281W        W64205   8.269   0.782  52.904
72282W        W64206   0.796   8.259  53.316
72283W        W64207  16.272  27.241  53.326
72284W        W64208  10.250  28.722  52.429
72285W        W64209   1.764   1.282  50.143
72286W        W64210   9.735  28.215  50.151
72287W        W64211   7.785  12.742  51.509
72288W        W64212  24.234  48.173  51.990
72289W        W64213  24.724  35.694  52.417
72290W        W64214   0.291  39.230  52.879
72291W        W64215  22.251  10.751  49.705
72292W        W64216  33.709  36.718  53.328
72293W        W64217  44.192  36.195  51.054
72294W        W64218  27.714  28.716  52.875
72295W        W64219  33.716  17.761  53.317
72296W        W64220  21.726   2.778  51.498
72297W        W64221  25.716  44.719  53.318
72298W        W64222  44.192  33.235  51.991
72299W        W64223  32.217  19.267  51.527
72300W        W64224  40.724  22.736  51.962
72301W        W64225  42.704  35.236  53.330
72302W        W64226  37.198  48.192  51.045
72303W        W64227  30.211   9.735  50.607
72304W        W64228  39.718  34.205  52.897
72305W        W64229  22.739  31.215  51.505
72306W        W64230  42.685  32.221  51.041
72307W        W64231  35.206   1.754  52.860
72308W        W64232  22.263  24.259  52.895
72309W        W64233   2.795  42.182  51.066
72310W        W64234   2.754  11.774  53.794
72311W        W64235  48.172  31.700  49.674
72312W        W64236  24.245   1.753  53.777
72313W        W64237  43.212  45.220  51.075
72314W        W64238  27.245  19.266  53.317
72315W        W64239   1.290  25.747  53.775
72316W        W64240  41.207  40.217  52.904
72317W        W64241  40.687  16.756  52.882
72318W        W64242  19.249  12.773  50.128
72319W        W64243  38.216  17.744  51.948
72320W        W64244  39.705  18.236  51.507
72321W        W64245  43.684  29.746  50.142
72322W        W64246   3.279   2.270  52.895
72323W        W64247  30.706  27.719  52.448
72324W        W64248  25.209  15.739  49.696
72325W        W64249  34.206  46.205  49.673
72326W        W64250  48.207   6.768  49.685
72327W        W64251   6.755   7.776  53.360
72328W        W64252   5.280  23.222  52.439
72329W        W64253   3.258  44.722  51.036
72330W        W64254  21.223  27.235  53.333
72331W        W64255  22.725  13.736  50.615
72332W        W64256  22.217  23.237  50.610
72333W        W64257  42.187  39.221  52.439
72334W        W64258  36.724   9.763  51.515
72335W        W64259   5.768  45.197  50.130
72336W        W64260  15.237  47.691  53.788
72337W        W64261  15.761  30.226  53.789
72338W        W64262  18.761  34.703  49.700
72339W        W64263  47.193  44.222  53.359
72340W        W64264  42.726  43.711  50.580
72341W        W64265  47.694  47.674  50.128
72342W        W64266  11.744  11.279  52.438
72343W        W64267  14.749  48.203  53.779
72344W        W64268  12.232   9.768  52.875
72345W        W64269  47.710  43.681  53.775
72346W        W64270  28.740  41.183  52.870
72347W        W64271  42.209   1.274  51.533
72348W        W64272  39.729  11.277  52.904
72349W        W64273   5.289   9.767  52.403
72350W        W64274  14.772  29.229  53.810
72351W        W64275  46.704  37.692  49.685
72352W        W64276  43.202  43.213  52.423
72353W        W64277  17.268  22.245  53.328
72354W        W64278  32.236  43.695  49.675
72355W        W64279  23.247  18.764  50.152
72356W        W64280   1.267  44.188  50.158
72357W        W64281  45.209  35.716  52.894
72358W        W64282  45.197  45.195  51.052
72359W        W64283  31.245  35.703  53.354
72360W        W64284  12.269   1.787  51.982
72361W        W64285  17.729  27.744  51.511
72362W        W64286  47.200  33.743  52.870
72363W        W64287  10.238  46.692  51.073
72364W        W64288  30.214  15.726  52.439
72365W        W64289  46.206  42.185  51.519
72366W        W64290  44.702   3.255  52.448
72367W        W64291  25.249   6.271  52.902
72368W        W64292  28.739  16.736  51.963
72369W        W64293  20.733  16.263  53.353
72370W        W64294   9.755  30.207  50.620
72371W        W64295  21.761  16.249  51.987
72372W        W64296  36.200  41.230  50.622
72373W        W64297  45.690   0.286  53.319
72374W        W64298  48.220  28.715  51.976
72375W        W64299  32.717  40.727  51.977
72376W        W64300  32.716  28.232  51.527
72377W        W64301   1.263  39.225  51.070
72378W        W64302  11.759   0.763  51.509
72379W        W64303  20.738  22.255  50.595
72380W        W64304   1.289  24.721  53.789
72381W        W64305   8.778   3.287  53.790
72382W        W64306  37.219  37.724  49.668
72383W        W64307  36.729   8.255  53.351
72384W        W64308  44.208   3.782  53.346
72385W        W64309   8.264  34.228  53.339
72386W        W64310  32.204   2.291  52.876
72387W        W64311  15.757  34.695  52.431
72388W        W64312   1.790  20.264  52.880
72389W        W64313  46.196  17.258  53.806
72390W        W64314  17.231  13.247  52.883
72391W        W64315   5.268   9.755  51.975
72392W        W64316  24.255  26.749  50.133
72393W        W64317  22.242  35.711  50.128
72394W        W64318  29.737   1.766  53.804
72395W        W64319  13.732  13.231  49.694
72396W        W64320  43.207  17.760  52.420
72397W        W64321   3.267   9.250  52.448
72398W        W64322  41.226  45.686  51.494
72399W        W64323  12.750  29.715  52.438
72400W        W64324   1.292   1.265  50.599
72401W        W64325   4.777  35.711  51.535
72402W        W64326  35.724   3.271  53.341
72403W        W64327  13.777   5.753  51.068
72404W        W64328  24.729  21.730  51.958
72405W        W64329  25.240  28.710  52.437
72406W        W64330  38.699  26.747  52.432
72407W        W64331  47.194  10.742  53.802
72408W        W64332  48.207  13.749  53.335
72409W        W64333  47.196  44.724  52.870
72410W        W64334  43.708  29.227  51.038
72411W        W64335  37.234  14.249  53.779
72412W        W64336   0.790   6.286  51.493
72413W        W64337  25.216  24.757  51.982
72414W        W64338  42.182  46.689  51.060
72415W        W64339  35.226  15.750  50.144
72416W        W64340  24.259  47.179  50.592
72417W        W64341  36.233  30.716  52.423
72418W        W64342   3.288   1.295  51.065
72419W        W64343  32.207   1.770  51.046
72420W        W64344  46.678  37.208  51.043
72421W        W64345   7.766  25.708  50.580
72422W        W64346  47.206  42.696  51.046
72423W        W64347  31.728  26.220  50.585
72424W        W64348   7.248  33.724  51.972
72425W        W64349   8.738  30.244  52.903
72426W        W64350  15.764  46.206  52.866
72427W        W64351  43.699  48.174  51.535
72428W        W64352  21.240  31.746  53.806
72429W        W64353   2.767   8.254  51.965
72430W        W64354  27.231  36.699  52.896
72431W        W64355   8.246  12.268  51.079
72432W        W64356  35.702  20.219  51.966
72433W        W64357  16.723  11.274  52.890
72434W        W64358  35.693  28.711  51.955
72435W        W64359   6.244  17.244  52.900
72436W        W64360  13.774  35.198  52.443
72437W        W64361  40.188  37.698  51.984
72438W        W64362  14.252   1.759  53.783
72439W        W64363   2.289  44.204  50.591
72440W        W64364  18.726  33.726  52.440
72441W        W64365  11.241  44.222  53.778
72442W        W64366  17.238   9.263  53.813
72443W        W64367  31.719  11.265  51.506
72444W        W64368  35.211  47.693  50.600
72445W        W64369  43.197  26.214  51.493
72446W        W64370  17.770  24.729  53.816
72447W        W64371  46.184  18.242  49.698
72448W        W64372  47.184  47.700  51.065
72449W        W64373   5.788  43.726  50.609
72450W        W64374  46.695   7.738  51.956
72451W        W64375   4.790  17.244  50.587
72452W        W64376  33.733  27.245  51.497
72453W        W64377  36.715   0.286  51.523
72454W        W64378  22.245  11.766  51.508
72455W        W64379  35.725  41.182  51.991
72456W        W64380  20.218  33.700  50.613
72457W        W64381   4.770  46.198  50.611
72458W        W64382  47.215  42.228  52.868
72459W        W64383   9.749  17.733  52.890
72460W        W64384  20.255  38.211  51.064
72461W        W64385   6.776   7.256  50.622
72462W        W64386  29.227  44.720  50.138
72463W        W64387   6.767  14.255  53.353
72464W        W64388   5.754  10.775  53.338
72465W        W64389  39.722  45.199  51.494
72466W        W64390  47.702  47.680  51.510
72467W        W64391  15.251  13.248  50.589
72468W        W64392  15.231  18.262  52.859
72469W        W64393  21.720  31.745  50.166
72470W        W64394  43.190  38.218  52.905
72471W        W64395  18.745  22.731  51.045
72472W        W64396  20.241  19.233  52.897
72473W        W64397  18.725   1.786  50.157
72474W        W64398  15.734  26.741  52.439
72475W        W64399  15.735  47.719  50.140
72476W        W64400  24.740   1.278  53.347
72477W        W64401  28.249  12.777  53.342
72478W        W64402  21.233  44.723  51.070
72479W        W64403  42.707   6.274  51.970
72480W        W64404  15.768   9.240  49.704
72481W        W64405  21.761  34.239  49.705
72482W        W64406  45.698  42.188  52.412
72483W        W64407  33.208   8.750  53.337
72484W        W64408  39.729  18.731  52.424
72485W        W64409   5.745  37.730  49.698
72486W        W64410  22.231   8.284  50.583
72487W        W64411  28.707  19.733  51.499
72488W        W64412  43.215  46.698  53.330
72489W        W64413  43.223  42.218  52.431
72490W        W64414   0.780  14.258  52.437
72491W        W64415  25.237  27.747  51.967
72492W        W64416  25.740  17.250  53.803
72493W        W64417   0.299  35.209  53.796
72494W        W64418   9.783  28.732  51.523
72495W        W64419   5.789  30.704  53.813
72496W        W64420  14.742  17.232  53.786
72497W        W64421  15.227  10.733  53.815
72498W        W64422  30.712  47.687  49.709
72499W        W64423  20.760  34.711  53.787
72500W        W64424  27.734  25.752  50.598
72501W        W64425   6.767  43.699  53.347
72502W        W64426  34.215  47.173  53.352
72503W        W64427  11.267  29.249  51.985
72504W        W64428  11.268  47.184  51.507
72505W        W64429  27.225  28.219  49.687
72506W        W64430  11.256   7.248  52.862
72507W        W64431  47.673  17.233  51.524
72508W        W64432  19.738  32.719  52.881
72509W        W64433  14.757  19.741  51.959
72510W        W64434  47.700  11.735  52.899
72511W        W64435  42.690  12.269  49.703
72512W        W64436  11.235  43.690  52.879
72513W        W64437  18.733  27.237  50.141
72514W        W64438   5.773  29.732  50.607
72515W        W64439  10.761  44.719  50.596
72516W        W64440  46.705   9.273  52.447
72517W        W64441  14.731  45.185  50.163
72518W        W64442   5.242  13.734  51.497
72519W        W64443   4.774  24.752  50.157
72520W        W64444   3.258  30.218  50.143
72521W        W64445  36.728  36.199  51.954
72522W        W64446  33.212  37.224  51.068
72523W        W64447  39.709  18.759  53.347
72524W        W64448  34.703  15.257  52.408
72525W        W64449  15.249  27.740  51.984
72526W        W64450  48.191  46.694  52.406
72527W        W64451  16.228  13.748  50.166
72528W        W64452   2.277  21.744  52.904
72529W        W64453  41.196   9.264  51.491
72530W        W64454   9.283  44.202  50.144
72531W        W64455  10.278  10.758  53.336
72532W        W64456   7.271  45.211  51.054
72533W        W64457  11.733  15.728  50.615
72534W        W64458  44.713  37.238  50.137
72535W        W64459  38.233  48.220  53.342
72536W        W64460  37.719  20.735  49.670
72537W        W64461  25.744  36.199  51.048
72538W        W64462  40.732  20.255  53.344
72539W        W64463  38.223  34.720  51.492
72540W        W64464  38.690  38.235  52.866
72541W        W64465  36.734  15.258  53.334
72542W        W64466  42.184  10.247  51.066
72543W        W64467  25.240  23.230  50.132
72544W        W64468  26.212   2.767  51.069
72545W        W64469  41.206  38.708  53.805
72546W        W64470  47.214  22.756  50.604
72547W        W64471  35.235   5.284  52.435
72548W        W64472  27.228  46.698  52.893
72549W        W64473   9.278   9.766  50.622
72550W        W64474   7.779  13.229  52.872
72551W        W64475   1.776  10.781  49.698
72552W        W64476   5.248  30.225  52.424
72553W        W64477  42.709   6.751  51.501
72554W        W64478  33.197   2.274  50.131
72555W        W64479   3.758  47.683  53.336
72556W        W64480  30.230   0.784  51.052
72557W        W64481  21.253  28.741  49.707
72558W        W64482  11.768  17.753  53.350
72559W        W64483  22.756   8.266  52.899
72560W        W64484  16.225   7.287  50.142
72561W        W64485  25.234  28.218  53.784
72562W        W64486  18.727  46.690  49.709
72563W        W64487   9.278  14.252  51.973
72564W        W64488  36.716  12.741  51.047
72565W        W64489  31.212  30.243  51.972
72566W        W64490   8.778  19.754  51.965
72567W        W64491  27.221   1.758  51.955
72568W        W64492  26.213  41.700  49.701
72569W        W64493  10.768  18.240  52.869
72570W        W64494  17.257   6.769  53.326
72571W        W64495   0.777  29.244  53.809
72572W        W64496  32.216  44.701  50.124
72573W        W64497   2.278  40.690  53.357
72574W        W64498   8.774  19.767  53.350
72575W        W64499   3.274  18.751  52.448
72576W        W64500   5.277  16.230  53.793
72577W        W64501  28.208  17.754  53.333
72578W        W64502  45.193  25.718  50.595
72579W        W64503   0.260  18.247  49.695
72580W        W64504  30.737  24.752  51.071
72581W        W64505  25.744  20.740  52.901
72582W        W64506  28.230  45.192  49.699
72583W        W64507  17.236   3.752  50.585
72584W        W64508  44.686  18.741  49.698
72585W        W64509   0.290  11.232  51.502
72586W        W64510  42.218   3.789  51.508
72587W        W64511  30.239  18.752  50.162
72588W        W64512  31.745  33.240  53.343
72589W        W64513  33.702  31.232  52.876
72590W        W64514  45.196  36.231  49.697
72591W        W64515  37.196   5.754  52.870
72592W        W64516  22.233   7.246  51.963
72593W        W64517   5.255   4.764  50.593
72594W        W64518  15.733   5.290  53.782
72595W        W64519  24.718  47.216  52.902
72596W        W64520  18.224   9.737  51.526
72597W        W64521  17.766  26.236  53.355
72598W        W64522   2.754  42.699  52.881
72599W        W64523  41.227   3.280  51.950
72600W        W64524  27.246   1.273  51.070
72601W        W64525  17.234  19.764  52.420
72602W        W64526  11.264  38.203  53.798
72603W        W64527   9.741  19.251  51.064
72604W        W64528  46.219  44.198  50.604
72605W        W64529  31.248   6.247  53.791
72606W        W64530  38.734  32.223  52.867
72607W        W64531  24.727   1.294  50.162
72608W        W64532  39.701   5.745  50.123
72609W        W64533  38.230  26.225  53.781
72610W        W64534   1.764  27.709  49.669
72611W        W64535  46.178  32.235  53.793
72612W        W64536   1.755  44.221  50.154
72613W        W64537  38.711  35.725  50.609
72614W        W64538  21.219   9.284  50.166
72615W        W64539  35.195  43.700  53.809
72616W        W64540  39.186  22.743  50.616
72617W        W64541  16.235  29.739  52.896
72618W        W64542   4.764  39.192  52.436
72619W        W64543   8.243  19.750  51.079
72620W        W64544  16.758  17.754  53.808
72621W        W64545   9.251   3.756  49.704
72622W        W64546  17.238  14.742  49.687
72623W        W64547   6.766  37.707  51.499
72624W        W64548  46.198  24.713  51.073
72625W        W64549  13.748  21.744  51.052
72626W        W64550  12.771   5.242  50.584
72627W        W64551  17.237  36.240  50.578
72628W        W64552  41.220  21.717  50.620
72629W        W64553  33.725  48.198  52.894
72630W        W64554  11.247  21.758  52.445
72631W        W64555  33.197  18.228  52.867
72632W        W64556  22.243  17.725  49.691
72633W        W64557  19.245   2.753  53.817
72634W        W64558  20.229  43.698  51.974
72635W        W64559  41.718  31.236  51.045
72636W        W64560  27.740  13.266  52.860
72637W        W64561   9.250   0.255  52.901
72638W        W64562  31.244  15.763  51.507
72639W        W64563  18.225  42.716  51.055
72640W        W64564  30.728   8.761  51.989
72641W        W64565  14.759   1.277  49.709
72642W        W64566   2.257  30.203  53.788
72643W        W64567   8.776  44.692  53.359
72644W        W64568  20.231  12.769  52.437
72645W        W64569  15.248  21.716  51.535
72646W        W64570  20.260  38.704  51.507
72647W        W64571  37.722  12.252  53.349
72648W        W64572  31.230  32.732  52.423
72649W        W64573   4.243   5.786  53.327
72650W        W64574  46.198  21.720  51.071
72651W        W64575  42.189  19.753  51.520
72652W        W64576   1.755   5.755  51.519
72653W        W64577  22.254  37.216  52.407
72654W        W64578  43.697  11.749  50.142
72655W        W64579   3.756  11.272  52.433
72656W        W64580  35.732  13.730  50.605
72657W        W64581  38.204  44.186  51.955
72658W        W64582  43.195  32.206  53.318
72659W        W64583  48.171  31.728  50.607
72660W        W64584  27.255  22.734  53.815
72661W        W64585   3.757  30.212  51.974
72662W        W64586  44.180  14.243  52.417
72663W        W64587   4.749   9.265  53.320
72664W        W64588  42.685  18.737  51.492
72665W        W64589  27.217  11.741  51.052
72666W        W64590  17.251  31.746  49.696
72667W        W64591  26.241  11.257  52.886
72668W        W64592   8.280  21.262  51.077
72669W        W64593  31.224   2.790  53.324
72670W        W64594   2.274  23.254  52.415
72671W        W64595  16.226   1.262  50.138
72672W        W64596  41.199  10.253  50.133
72673W        W64597  32.246   0.299  50.592
72674W        W64598  16.757  35.220  49.669
72675W        W64599   6.740  47.219  51.503
72676W        W64600   7.240  37.725  51.058
72677W        W64601  48.177  13.255  51.983
72678W        W64602  23.733  23.259  52.408
72679W        W64603  47.691   6.244  50.609
72680W        W64604  37.215  18.731  50.123
72681W        W64605   3.280  29.230  52.421
72682W        W64606  35.217  13.773  50.133
72683W        W64607  37.698   4.785  50.609
72684W        W64608   5.275  26.246  53.321
72685W        W64609  13.269  34.195  51.067
72686W        W64610   9.777  17.247  53.777
72687W        W64611  38.224   1.796  53.775
72688W        W64612   3.783  29.219  53.789
72689W        W64613  26.243   6.253  51.516
72690W        W64614  28.729   5.242  52.903
72691W        W64615  25.728  17.727  53.353
72692W        W64616  18.734  43.187  50.127
72693W        W64617   9.773  34.726  51.972
72694W        W64618  14.739  19.233  50.619
72695W        W64619   5.776   9.779  50.127
72696W        W64620  18.226  17.749  50.615
72697W        W64621  24.243  36.712  51.975
72698W        W64622   4.257   8.739  52.861
72699W        W64623   3.265   7.761  52.863
72700W        W64624  25.221  24.222  53.816
72701W        W64625  34.735  16.736  51.046
72702W        W64626  27.245  14.271  53.776
72703W        W64627  23.239  21.241  51.989
72704W        W64628  42.713   9.744  50.596
72705W        W64629  28.219  41.729  52.871
72706W        W64630  35.217  37.715  52.893
72707W        W64631  41.689  39.703  51.491
72708W        W64632  27.226  45.694  51.980
72709W        W64633  38.225   7.776  49.701
72710W        W64634  20.262  35.209  52.405
72711W        W64635   0.784  14.274  51.078
72712W        W64636  26.237  29.718  51.056
72713W        W64637  22.259  38.225  52.896
72714W        W64638  38.735  13.243  50.611
72715W        W64639  17.746  28.742  49.710
72716W        W64640  35.226  33.733  51.037
72717W        W64641  29.743  26.241  51.036
72718W        W64642  22.225  18.251  51.950
72719W        W64643  33.242  42.721  50.612
72720W        W64644   9.763  22.740  52.889
72721W        W64645  41.700  19.263  53.339
72722W        W64646   4.282  14.756  53.344
72723W        W64647   0.776   5.762  49.692
72724W        W64648  31.236  27.249  49.685
72725W        W64649   5.260   8.283  50.146
72726W        W64650   6.246  10.271  50.134
72727W        W64651  23.215  41.722  49.691
72728W        W64652  21.718   6.283  52.883
72729W        W64653  16.749   5.278  53.361
72730W        W64654  36.738  43.701  53.327
72731W        W64655  27.228  46.689  49.701
72732W        W64656   0.766  18.247  51.957
72733W        W64657  33.698  22.746  53.320
72734W        W64658  36.736  24.722  51.066
72735W        W64659  47.187  24.756  51.979
72736W        W64660   3.264  12.738  51.064
72737W        W64661   9.277  48.194  53.316
72738W        W64662  45.717  34.243  51.069
72739W        W64663   6.782  18.766  51.493
72740W        W64664  48.220  25.241  52.414
72741W        W64665  37.695  43.680  53.324
72742W        W64666  26.250  45.718  52.407
72743W        W64667  23.238  10.267  53.339
72744W        W64668   3.753  46.192  51.528
72745W        W64669   4.258  40.699  53.331
72746W        W64670   9.278  22.737  49.689
72747W        W64671  22.259  22.248  51.960
72748W        W64672  38.703  34.697  52.874
72749W        W64673  34.200   1.787  50.613
72750W        W64674   7.248  31.208  53.807
72751W        W64675  27.727  35.707  53.346
72752W        W64676  34.695  12.232  52.414
72753W        W64677  20.235   1.755  53.775
72754W        W64678  13.732  46.679  51.974
72755W        W64679  37.206   4.781  50.587
72756W        W64680   0.287  33.742  51.038
72757W        W64681  34.709  27.221  51.497
72758W        W64682  28.252   4.287  52.411
72759W        W64683  27.733  19.734  52.412
72760W        W64684  15.229  22.236  52.888
72761W        W64685  12.251  27.225  49.679
72762W        W64686  38.697   3.744  53.327
72763W        W64687   3.765  43.211  50.620
72764W        W64688  35.195  35.209  53.782
72765W        W64689  10.751  43.723  52.896
72766W        W64690  26.228   5.780  52.873
72767W        W64691  29.731  31.737  51.975
72768W        W64692  35.709  33.201  53.326
72769W        W64693   8.282  34.203  49.672
72770W        W64694   7.770   4.767  51.526
72771W        W64695  41.687  14.756  53.320
72772W        W64696  43.683   2.296  52.873
72773W        W64697  18.725  40.227  49.679
72774W        W64698   0.752   4.751  53.341
72775W        W64699   9.748   8.266  50.133
72776W        W64700  18.762  42.707  50.145
72777W        W64701  10.738  30.709  52.876
72778W        W64702  44.190  44.721  51.511
72779W        W64703   6.739  14.276  52.870
72780W        W64704  21.758  15.257  51.523
72781W        W64705  14.750  26.215  50.602
72782W        W64706  42.721  40.694  53.783
72783W        W64707   6.266   2.286  51.969
72784W        W64708  46.690   5.283  50.578
72785W        W64709  39.227   7.785  53.808
72786W        W64710  28.726  45.207  51.522
72787W        W64711  34.199   7.754  52.429
72788W        W64712  37.197  41.195  50.609
72789W        W64713  23.240  27.731  50.596
72790W        W64714  32.709  27.213  50.155
72791W        W64715  41.697  36.214  53.797
72792W        W64716  39.200  13.231  50.585
72793W        W64717  24.729   4.760  51.492
72794W        W64718  39.220   5.282  50.141
72795W        W64719  29.726  40.217  53.322
72796W        W64720  38.717  25.749  50.126
72797W        W64721   3.761  13.762  51.493
72798W        W64722   2.792   0.264  53.797
72799W        W64723  24.755   3.253  53.784
72800W        W64724  37.196  48.205  53.778
72801W        W64725  45.184  13.744  49.670
72802W        W64726  36.217  23.260  51.991
72803W        W64727  22.236   6.743  53.813
72804W        W64728  46.183   1.262  53.323
72805W        W64729   9.769  14.756  50.606
72806W        W64730   9.261  43.727  50.145
72807W        W64731  30.720  33.202  50.622
72808W        W64732  38.212   7.263  52.859
72809W        W64733  31.743  30.730  51.957
72810W        W64734  41.706  19.738  50.148
72811W        W64735   3.783  32.237  51.505
72812W        W64736   7.750  25.233  53.332
72813W        W64737  24.733  31.242  50.147
72814W        W64738  13.771   1.290  52.448
72815W        W64739  26.713   2.770  49.693
72816W        W64740   5.747  35.241  53.805
72817W        W64741  18.728  42.223  52.420
72818W        W64742  39.217  23.247  53.779
72819W        W64743  17.751  41.209  51.968
72820W        W64744   2.753  34.704  53.324
72821W        W64745  12.779  21.749  52.440
72822W        W64746  29.212  11.242  53.796
72823W        W64747  32.728  16.757  50.588
72824W        W64748  36.739  31.718  53.325
72825W        W64749  14.729  32.744  53.815
72826W        W64750  22.762  16.728  53.778
72827W        W64751   9.780   1.776  52.403
72828W        W64752  27.717  47.210  50.132
72829W        W64753   6.746   9.777  51.055
72830W        W64754  38.717  17.740  51.988
72831W        W64755  11.764   3.261  53.804
72832W        W64756  41.203  28.727  53.775
72833W        W64757  24.722  29.245  53.359
72834W        W64758  25.233   9.748  50.157
72835W        W64759  15.240  46.677  51.990
72836W        W64760  20.727  47.699  53.801
72837W        W64761  28.243  14.251  51.036
72838W        W64762  36.202  26.739  50.160
72839W        W64763   7.245  27.751  51.493
72840W        W64764  29.737  39.206  53.358
72841W        W64765  46.177   7.280  51.074
72842W        W64766  12.760  26.713  52.446
72843W        W64767  30.745  41.709  51.963
72844W        W64768  20.236   5.777  49.703
72845W        W64769  27.737  36.736  50.602
72846W        W64770   1.769  27.228  49.683
72847W        W64771  45.707  18.743  53.786
72848W        W64772  29.233  31.744  52.875
72849W        W64773  47.720  14.231  52.869
72850W        W64774  23.751  21.261  50.127
72851W        W64775  40.717  34.212  52.411
72852W        W64776  20.726  35.236  49.665
72853W        W64777  44.709   7.752  53.361
72854W        W64778  16.749  15.768  53.801
72855W        W64779  48.184  24.710  51.955
72856W        W64780   8.267  38.709  53.336
72857W        W64781  40.228  21.224  50.600
72858W        W64782   0.295   9.253  53.360
72859W        W64783   3.786  38.704  52.876
72860W        W64784  16.747   0.271  53.336
72861W        W64785  25.733  21.760  51.517
72862W        W64786  13.769   2.750  51.528
72863W        W64787  16.231  12.266  51.074
72864W        W64788   3.780  42.223  51.493
72865W        W64789  15.261  38.728  52.894
72866W        W64790  34.697   4.790  49.706
72867W        W64791  18.738  21.715  53.775
72868W        W64792  31.244   4.247  50.605
72869W        W64793  45.207  45.219  51.497
72870W        W64794   1.755  12.255  51.495
72871W        W64795  30.229  48.195  51.515
72872W        W64796  46.220  21.250  53.342
72873W        W64797  32.216  37.732  49.684
72874W        W64798  21.250  21.259  53.794
72875W        W64799  31.243  32.246  50.152
72876W        W64800  36.721   0.791  52.409
72877W        W64801  12.239  47.177  52.414
72878W        W64802   3.751   6.780  49.680
72879W        W64803  32.239  46.191  51.038
72880W        W64804   3.264  38.733  49.695
72881W        W64805  45.685  10.762  51.967
72882W        W64806   8.763  26.238  51.499
72883W        W64807   3.261   7.239  51.953
72884W        W64808  29.202  38.228  50.583
72885W        W64809  27.746  29.737  52.867
72886W        W64810  33.739   7.246  51.974
72887W        W64811  31.232  31.234  51.037
72888W        W64812  32.241  40.716  50.577
72889W        W64813  14.732  14.742  52.873
72890W        W64814  13.240  27.716  53.317
72891W        W64815  20.731   7.252  53.813
72892W        W64816  31.203  47.215  49.685
72893W        W64817  33.229   4.265  52.875
72894W        W64818  37.705  45.190  50.595
72895W        W64819   9.273  14.772  52.900
72896W        W64820  22.233  47.690  52.433
72897W        W64821  22.758   4.258  51.957
72898W        W64822  23.247  41.216  50.610
72899W        W64823  15.273  27.706  52.895
72900W        W64824  16.260  45.724  53.792
72901W        W64825  11.244  26.722  49.689
72902W        W64826  15.763   2.257  52.868
72903W        W64827   2.250  23.257  53.340
72904W        W64828   8.237  11.252  50.163
72905W        W64829  30.201   6.270  49.686
72906W        W64830  38.210  21.239  50.127
72907W        W64831  26.235  11.758  51.530
72908W        W64832  34.699  31.206  51.039
72909W        W64833  22.719  18.738  51.531
72910W        W64834  39.695  39.714  51.501
72911W        W64835  36.711   4.780  51.052
72912W        W64836  23.750  36.712  53.344
72913W        W64837  47.177  45.715  53.774
72914W        W64838  31.713  15.236  49.676
72915W        W64839  23.248   8.252  50.147
72916W        W64840   7.749   6.261  53.809
72917W        W64841   1.258  37.714  49.686
72918W        W64842   6.779  22.240  50.580
72919W        W64843  41.199   6.272  53.782
72920W        W64844  30.222  24.256  50.592
72921W        W64845  47.200  27.743  52.406
72922W        W64846  34.698  30.229  51.061
72923W        W64847  41.231   8.778  53.788
72924W        W64848   1.255  14.736  52.875
72925W        W64849  24.733  16.260  50.621
72926W        W64850  15.259  31.723  52.406
72927W        W64851  32.718  13.755  50.136
72928W        W64852  44.192  17.725  51.984
72929W        W64853  41.704   7.754  49.705
72930W        W64854   8.751   7.752  50.584
72931W        W64855  32.221  37.221  51.521
72932W        W64856  31.208  35.736  50.133
72933W        W64857  23.252  33.736  53.347
72934W        W64858  42.708  47.696  50.583
72935W        W64859  28.717  25.243  53.337
72936W        W64860   4.274   7.763  50.150
72937W        W64861  35.211   9.747  53.807
72938W        W64862  10.747  30.218  49.671
72939W        W64863  19.226  40.722  53.804
72940W        W64864   4.753  20.720  53.345
72941W        W64865  15.738  43.684  53.318
72942W        W64866  42.680   6.261  51.043
72943W        W64867  20.220  33.223  51.977
72944W        W64868   5.781  42.728  51.953
72945W        W64869  47.191  18.244  50.606
72946W        W64870  18.756  29.733  50.592
72947W        W64871  20.757   8.782  52.431
72948W        W64872  23.719  22.749  50.140
72949W        W64873  15.747  19.739  51.518
72950W        W64874  10.263  11.766  53.327
72951W        W64875  28.746  38.207  53.775
72952W        W64876  31.206   4.743  50.122
72953W        W64877  41.703  44.217  53.354
72954W        W64878  22.217  20.223  53.792
72955W        W64879  12.775   7.286  53.339
72956W        W64880   1.750  18.755  52.893
72957W        W64881   8.283  26.221  50.589
72958W        W64882  34.230   5.284  52.412
72959W        W64883  26.213  44.186  49.699
72960W        W64884   6.259  38.689  51.502
72961W        W64885  27.223  44.689  49.686
72962W        W64886  30.203  10.755  49.705
72963W        W64887  40.196  29.245  51.987
72964W        W64888  12.274   9.772  53.318
72965W        W64889  13.251  13.739  49.704
72966W        W64890  10.774  32.203  51.955
72967W        W64891   5.275   3.274  52.879
72968W        W64892  31.218  43.202  51.534
72969W        W64893  36.231  45.184  52.901
72970W        W64894   0.756  17.254  49.682
72971W        W64895   8.782   3.763  50.620
72972W        W64896  24.234  11.758  52.434
72973W        W64897  10.282  32.710  51.970
72974W        W64898  12.729  45.182  53.790
72975W        W64899   4.775  35.714  50.129
72976W        W64900  30.740  47.192  53.780
72977W        W64901   4.243  35.218  50.144
72978W        W64902  47.209  17.752  51.062
72979W        W64903  10.740  18.722  52.887
72980W        W64904  14.276  12.268  50.148
72981W        W64905  23.759  15.759  53.801
72982W        W64906   8.262  27.712  52.438
72983W        W64907   5.771  46.202  51.061
72984W        W64908  38.722  16.743  51.075
72985W        W64909   7.781   8.779  50.132
72986W        W64910  28.231  44.194  51.533
72987W        W64911  43.691  48.193  50.166
72988W        W64912   5.254  17.247  52.407
72989W        W64913   1.262  39.716  53.330
72990W        W64914  23.224  12.765  52.875
72991W        W64915  17.260  32.220  50.153
72992W        W64916  15.260   7.250  53.338
72993W        W64917  40.200  43.695  51.047
72994W        W64918  21.736  18.221  51.978
72995W        W64919  14.742  17.229  52.894
72996W        W64920   9.277  46.199  52.429
72997W        W64921  13.745   7.253  51.970
72998W        W64922  15.766  35.733  51.492
72999W        W64923  18.262   7.250  51.495
73000W        W64924  31.717   9.264  51.493
73001W        W64925  29.225   0.255  52.899
73002W        W64926  12.765  35.737  51.532
73003W        W64927   5.788  12.772  51.522
73004W        W64928  16.265  28.707  51.035
73005W        W64929   9.779  20.260  51.491
73006W        W64930   1.771  38.226  51.064
73007W        W64931  15.252  21.223  52.880
73008W        W64932  36.735  26.722  53.324
73009W        W64933  30.231  19.748  52.409
73010W        W64934   8.240  40.228  52.409
73011W        W64935  26.218  25.240  49.704
73012W        W64936  43.694   1.759  51.991
73013W        W64937  34.211  37.735  51.972
73014W        W64938  27.235   8.739  53.799
73015W        W64939  24.759  40.684  51.959
73016W        W64940  27.219  35.727  51.533
73017W        W64941   0.793   8.250  52.881
73018W        W64942  46.711   1.288  53.800
73019W        W64943  24.738  33.740  53.319
73020W        W64944  33.723   4.768  49.709
73021W        W64945  19.738  46.203  50.583
73022W        W64946  17.249   1.296  52.879
73023W        W64947  16.245  20.754  50.595
73024W        W64948  29.723  23.742  51.045
73025W        W64949  39.228  13.254  49.703
73026W        W64950  47.715  40.718  49.702
73027W        W64951  43.204  15.239  51.954
73028W        W64952  28.214   2.785  52.415
73029W        W64953   0.794  18.752  53.806
73030W        W64954  30.233   6.741  51.060
73031W        W64955  14.228  45.182  50.132
73032W        W64956  18.769  45.682  52.864
73033W        W64957  35.730  35.729  49.687
73034W        W64958   4.261  37.724  51.513
73035W        W64959  46.201  20.736  50.584
73036W        W64960   4.765  23.244  50.610
73037W        W64961   9.238  15.245  52.859
73038W        W64962  46.714  35.718  49.688
73039W        W64963  37.719  33.205  51.516
73040W        W64964  15.233   5.750  51.499
73041W        W64965  40.230  22.748  49.709
73042W        W64966   2.769   0.281  49.702
73043W        W64967  15.227   4.270  51.066
73044W        W64968  35.194  20.240  51.502
73045W        W64969  24.245  30.743  51.991
73046W        W64970  17.749  46.686  53.341
73047W        W64971  32.734  20.720  49.697
73048W        W64972  11.762  39.709  52.437
73049W        W64973  12.240  19.268  50.612
73050W        W64974  46.681  35.194  50.604
73051W        W64975   5.253  20.225  49.676
73052W        W64976  20.748  33.715  53.319
73053W        W64977  47.198  16.746  52.861
73054W        W64978  31.705  33.207  51.963
73055W        W64979  40.209  17.249  53.338
73056W        W64980  27.737  18.231  50.140
73057W        W64981  23.258  30.711  49.671
73058W        W64982  25.748  28.704  51.510
73059W        W64983  20.255  32.717  52.864
73060W        W64984  29.242  13.756  53.815
73061W        W64985  34.727  18.269  52.867
73062W        W64986  32.707  40.701  50.620
73063W        W64987  44.680   2.775  51.061
73064W        W64988  45.685  37.704  50.579
73065W        W64989  41.692  44.722  50.607
73066W        W64990   7.260  28.711  50.140
73067W        W64991  32.731  42.215  53.345
73068W        W64992  14.758  47.208  50.138
73069W        W64993  29.222  34.212  52.888
73070W        W64994   3.250  12.755  50.130
73071W        W64995  42.196  24.240  51.045
73072W        W64996  32.228  38.693  51.527
73073W        W64997   6.747  41.215  51.055
73074W        W64998  22.259  13.774  50.154
73075W        W64999  12.759   8.246  52.431
73076W        W65000  18.742  31.200  50.589
73077W        W65001  28.239  47.199  51.990
73078W        W65002  38.715  18.751  52.881
73079W        W65003   1.754  44.205  53.782
73080W        W65004  11.755   7.748  53.345
73081W        W65005  25.736  40.212  52.886
73082W        W65006  38.212  35.214  53.800
73083W        W65007  47.696  25.226  52.888
73084W        W65008   9.781  23.220  52.884
73085W        W65009  45.677  36.201  53.796
73086W        W65010  10.240  48.197  51.518
73087W        W65011   8.782  31.203  51.498
73088W        W65012  13.768  17.262  49.668
73089W        W65013  40.719   8.254  53.789
73090W        W65014  10.267   5.785  50.123
73091W        W65015  19.753  17.767  53.317
73092W        W65016  21.718  47.221  51.984
73093W        W65017  33.730   8.285  53.773
73094W        W65018   7.744  22.719  52.438
73095W        W65019  39.187  20.757  53.805
73096W        W65020  23.753  43.180  50.158
73097W        W65021   9.768   0.758  50.615
73098W        W65022  32.711   2.763  50.122
73099W        W65023  13.253  16.223  53.787
73100W        W65024  19.741  36.699  51.045
73101W        W65025  41.688  15.763  53.318
73102W        W65026  43.704  26.249  51.510
73103W        W65027  10.235  18.234  51.501
73104W        W65028  40.227  25.242  50.161
73105W        W65029   5.754  23.259  51.056
73106W        W65030  15.770  39.203  49.710
73107W        W65031   3.263  35.226  51.953
73108W        W65032  37.214  10.256  51.512
73109W        W65033   6.753  14.743  50.151
73110W        W65034  47.220  29.242  53.808
73111W        W65035  43.717  24.721  51.947
73112W        W65036  26.743  37.690  53.348
73113W        W65037  18.768  28.232  51.959
73114W        W65038  19.265  18.239  51.523
73115W        W65039  42.729  22.719  50.621
73116W        W65040  28.223   5.247  52.902
73117W        W65041  34.737   2.265  50.144
73118W        W65042  45.176  14.242  52.895
73119W        W65043  14.228  39.690  51.982
73120W        W65044  47.177  44.204  51.491
73121W        W65045  28.217  44.206  50.591
73122W        W65046  24.712  48.193  53.321
73123W        W65047  46.714  18.240  51.979
73124W        W65048  21.733  26.225  51.505
73125W        W65049  46.701  42.188  52.448
73126W        W65050  15.227  29.735  52.407
73127W        W65051  32.711  12.270  51.505
73128W        W65052  18.261  13.254  49.697
73129W        W65053   0.289  46.711  51.076
73130W        W65054  37.700  11.248  50.151
73131W        W65055  21.729   1.761  50.590
73132W        W65056  24.726  37.222  51.972
73133W        W65057  42.213  32.209  51.525
73134W        W65058  37.714  10.264  50.599
73135W        W65059  36.735  35.729  51.074
73136W        W65060  27.734  21.259  51.495
73137W        W65061  21.734  45.217  49.704
73138W        W65062  24.237  17.231  53.327
73139W        W65063   8.749  20.233  51.967
73140W        W65064  17.737  31.731  50.151
73141W        W65065  35.738  39.697  50.616
73142W        W65066   5.779   6.258  51.524
73143W        W65067  34.229  36.726  51.047
73144W        W65068   2.266   7.265  51.972
73145W        W65069  27.746  29.217  49.677
73146W        W65070  28.726  14.740  53.317
73147W        W65071  17.766  41.183  51.074
73148W        W65072  38.204  27.229  52.410
73149W        W65073  44.202  17.237  51.498
73150W        W65074  20.757   6.744  52.407
73151W        W65075  12.274   8.779  49.701
73152W        W65076  10.751   5.754  51.061
73153W        W65077   9.236   1.783  53.813
73154W        W65078  37.220  10.766  53.350
73155W        W65079  47.198  21.230  51.991
73156W        W65080   5.264   2.766  51.953
73157W        W65081  17.237  13.230  53.787
73158W        W65082  12.248  23.237  51.980
73159W        W65083   1.285   0.768  51.533
73160W        W65084  16.263  46.717  50.166
73161W        W65085  13.256  35.714  50.616
73162W        W65086  37.206  30.234  50.155
73163W        W65087  17.240  40.716  53.323
73164W        W65088  39.220  27.242  52.409
73165W        W65089   8.250  15.726  51.957
73166W        W65090  48.188  45.181  51.984
73167W        W65091  44.691  19.744  51.954
73168W        W65092  10.769  44.695  52.881
73169W        W65093  44.222  38.707  50.607
73170W        W65094   8.740  22.739  49.685
73171W        W65095  12.770  33.732  50.592
73172W        W65096  33.224  35.729  52.899
73173W        W65097  10.741  16.259  49.708
73174W        W65098  20.756   6.757  49.687
73175W        W65099   6.246  45.690  51.514
73176W        W65100  31.202  41.721  50.140
73177W        W65101   7.258  31.211  51.054
73178W        W65102   0.751  45.696  50.121
73179W        W65103   4.260  37.722  52.882
73180W        W65104   3.263  24.750  52.420
73181W        W65105   3.256  25.725  50.125
73182W        W65106  10.777  11.267  51.494
73183W        W65107   7.761   9.780  51.953
73184W        W65108  15.741   6.766  51.078
73185W        W65109  41.693  30.729  51.077
73186W        W65110   9.779   3.778  51.067
73187W        W65111  23.741  23.757  52.435
73188W        W65112  32.726  48.182  51.992
73189W        W65113  33.741  17.229  53.339
73190W        W65114  41.195   3.754  50.581
73191W        W65115  17.741  11.738  51.532
73192W        W65116  41.727  35.232  51.979
73193W        W65117  29.705  33.237  50.129
73194W        W65118  28.740  29.715  51.053
73195W        W65119  15.766  23.217  51.068
73196W        W65120  11.253  15.744  50.146
73197W        W65121   7.257  47.692  52.871
73198W        W65122   5.274  14.263  49.680
73199W        W65123   0.285  46.699  50.618
73200W        W65124  48.186  13.751  53.800
73201W        W65125  23.742  33.206  50.603
73202W        W65126  45.184  28.234  52.419
73203W        W65127   0.752  23.232  53.782
73204W        W65128  43.696  20.718  53.795
73205W        W65129  10.742  12.762  49.667
73206W        W65130  38.237   7.740  53.781
73207W        W65131  44.684  14.235  53.316
73208W        W65132  30.226  20.233  53.780
73209W        W65133  20.222  23.251  50.145
73210W        W65134   4.792  30.747  52.890
73211W        W65135  27.710  12.745  51.522
73212W        W65136  37.704  34.704  52.868
73213W        W65137  24.250  38.219  50.583
73214W        W65138   0.285  11.776  52.884
73215W        W65139  20.725  37.736  52.874
73216W        W65140  23.259  13.253  52.446
73217W        W65141  44.193   8.262  51.517
73218W        W65142  22.735  44.208  49.692
73219W        W65143  42.191  44.208  52.417
73220W        W65144  17.738  18.240  52.901
73221W        W65145  38.704  27.211  53.806
73222W        W65146  24.214  45.721  51.068
73223W        W65147  44.212  34.723  51.491
73224W        W65148   9.755  43.719  50.128
73225W        W65149  34.735  21.746  49.709
73226W        W65150  12.253  43.228  50.590
73227W        W65151   9.235  45.698  51.495
73228W        W65152  40.226   7.764  52.436
73229W        W65153  15.268  24.737  51.968
73230W        W65154  12.279   8.740  52.863
73231W        W65155  30.224  15.235  53.355
73232W        W65156  28.745  24.225  52.438
73233W        W65157   9.746  16.236  52.888
73234W        W65158  13.250  32.222  50.163
73235W        W65159  32.201   7.275  49.704
73236W        W65160  10.759  42.214  52.422
73237W        W65161   2.795  37.207  52.899
73238W        W65162  16.727   6.765  49.676
73239W        W65163  26.230  30.732  50.142
73240W        W65164  46.178  44.683  51.962
73241W        W65165  12.259  30.220  53.325
73242W        W65166   0.266  47.699  49.673
73243W        W65167   8.247   9.278  49.690
73244W        W65168  18.261  13.730  50.601
73245W        W65169  22.254  46.694  51.966
73246W        W65170  29.225  10.741  51.071
73247W        W65171  17.729  40.204  49.671
73248W        W65172   7.243   8.776  51.039
73249W        W65173  14.254   7.242  50.150
73250W        W65174  24.735  23.725  49.691
73251W        W65175  47.203  19.225  51.520
73252W        W65176  31.220  24.232  49.704
73253W        W65177  29.706  31.237  51.957
73254W        W65178  22.724   1.768  50.121
73255W        W65179  13.749   0.761  53.335
73256W        W65180  17.768  28.718  53.324
73257W        W65181  46.680   4.751  52.417
73258W        W65182  25.235  25.715  51.049
73259W        W65183  30.722  32.201  53.359
73260W        W65184  25.725  40.684  50.616
73261W        W65185  27.723  18.760  53.815
73262W        W65186   3.787  33.734  51.982
73263W        W65187   0.286  13.260  51.497
73264W        W65188  30.701  29.238  49.691
73265W        W65189  40.689   5.770  53.324
73266W        W65190  14.228   4.266  51.077
73267W        W65191   6.780  26.731  51.066
73268W        W65192  31.219  10.774  52.433
73269W        W65193  13.249  20.260  49.671
73270W        W65194  43.710  29.225  52.882
73271W        W65195   0.294  41.220  51.530
73272W        W65196  28.714  30.228  51.077
73273W        W65197  18.262  21.219  51.496
73274W        W65198  26.727  23.229  50.154
73275W        W65199  32.209  32.702  52.411
73276W        W65200   8.279   8.271  51.986
73277W        W65201  29.233  30.722  51.980
73278W        W65202  34.716  34.227  50.618
73279W        W65203  29.749  40.695  49.700
73280W        W65204  21.231   1.755  51.973
73281W        W65205  32.205  34.702  50.157
73282W        W65206  44.226  32.242  51.985
73283W        W65207  34.722  47.220  51.521
73284W        W65208  44.679   1.280  52.448
73285W        W65209   2.281  26.228  50.134
73286W        W65210  18.757  47.217  49.699
73287W        W65211  28.720  17.753  49.669
73288W        W65212  19.756  46.205  51.054
73289W        W65213   5.779  24.718  50.140
73290W        W65214  41.199  16.232  51.059
73291W        W65215  22.751  41.208  52.419
73292W        W65216   3.755  11.734  52.419
73293W        W65217   9.271  14.269  50.134
73294W        W65218   5.272  23.237  51.042
73295W        W65219  44.195  41.691  52.436
73296W        W65220  26.752  25.724  53.773
73297W        W65221  25.738   8.276  51.045
73298W        W65222  46.711  41.683  49.667
73299W        W65223  34.229  16.260  49.672
73300W        W65224  14.752  33.203  51.954
73301W        W65225   2.260   4.750  51.055
73302W        W65226  30.714  23.749  52.424
73303W        W65227  31.218  18.729  51.534
73304W        W65228  12.238   8.237  50.581
73305W        W65229  26.717  34.200  52.430
73306W        W65230  32.242  37.209  51.992
73307W        W65231  16.230   4.755  53.322
73308W        W65232   6.753  27.236  51.038
73309W        W65233  21.722   0.756  51.060
73310W        W65234  43.720  12.769  51.961
73311W        W65235  44.216   7.785  49.697
73312W        W65236  16.224  47.210  49.680
73313W        W65237  19.244  43.692  52.404
73314W        W65238  17.752  19.727  50.594
73315W        W65239   7.239  18.751  52.434
73316W        W65240  20.219  17.266  51.962
73317W        W65241  15.762  14.269  51.046
73318W        W65242  43.190  28.739  50.613
73319W        W65243  22.720  19.261  52.874
73320W        W65244  20.762  28.251  53.781
73321W        W65245   2.793  22.244  49.700
73322W        W65246  13.753   8.748  53.797
73323W        W65247  40.208   4.266  50.591
73324W        W65248   8.755  17.257  53.346
73325W        W65249  13.259  12.260  51.535
73326W        W65250  29.703   5.248  49.670
73327W        W65251  12.232  12.763  52.427
73328W        W65252  37.233  28.748  51.497
73329W        W65253  41.215  17.243  52.873
73330W        W65254  18.755  32.200  50.619
73331W        W65255  20.750  19.738  53.806
73332W        W65256  15.253   1.752  52.437
73333W        W65257   4.748  46.186  53.808
73334W        W65258   9.261  12.755  51.988
73335W        W65259  20.254  34.698  51.494
73336W        W65260  16.730   8.244  51.958
73337W        W65261  22.224  25.745  53.322
73338W        W65262  26.236   8.748  50.595
73339W        W65263  25.710  13.276  51.506
73340W        W65264  36.703  36.696  50.132
73341W        W65265  19.733  42.228  49.676
73342W        W65266  33.736  46.696  51.955
73343W        W65267  34.735  28.219  52.408
73344W        W65268  13.257   3.265  51.516
73345W        W65269  36.727  40.190  51.501
73346W        W65270  38.196  43.726  51.530
73347W        W65271  28.705  22.256  50.612
73348W        W65272  23.260   6.281  51.054
73349W        W65273  43.223  23.236  52.424
73350W        W65274  17.758  14.729  51.532
73351W        W65275  22.239   5.288  52.430
73352W        W65276  14.750  22.732  53.324
73353W        W65277  41.692  35.224  51.065
73354W        W65278  45.198   4.779  51.534
73355W        W65279  11.757  19.724  51.959
73356W        W65280  32.700  36.207  50.622
73357W        W65281  12.247  15.751  53.806
73358W        W65282  18.747   3.762  51.954
73359W        W65283  40.191  42.207  53.320
73360W        W65284  37.710  17.737  49.703
73361W        W65285   9.275   8.249  51.519
73362W        W65286   5.777  33.726  51.959
73363W        W65287  27.725  19.229  52.884
73364W        W65288  27.708  15.233  49.674
73365W        W65289   7.265  16.727  51.070
73366W        W65290  29.210  12.747  52.421
73367W        W65291  39.686  43.699  50.603
73368W        W65292  12.752   8.257  52.864
73369W        W65293  14.745  43.697  52.439
73370W        W65294  13.239  46.212  51.518
73371W        W65295  24.254  10.755  53.807
73372W        W65296  28.727  19.239  51.946
73373W        W65297  15.739  42.684  51.518
73374W        W65298  38.699   2.252  51.050
73375W        W65299  34.696  27.225  49.708
73376W        W65300  39.235  20.741  50.613
73377W        W65301  44.684  36.702  51.072
73378W        W65302   2.748  47.200  52.417
73379W        W65303  40.214  41.711  51.533
73380W        W65304  42.700  24.717  52.901
73381W        W65305  44.687   2.758  52.901
73382W        W65306  40.211  46.692  53.811
73383W        W65307   0.271  47.677  50.586
73384W        W65308  30.228  34.230  50.598
73385W        W65309  40.729  47.217  51.515
73386W        W65310  48.173  13.738  50.605
73387W        W65311  26.224   6.744  51.078
73388W        W65312  25.725  13.752  49.699
73389W        W65313   2.760  39.708  52.444
73390W        W65314  33.700  12.234  51.041
73391W        W65315  44.684  17.245  50.144
73392W        W65316   7.766   6.253  51.533
73393W        W65317  37.704  39.707  52.406
73394W        W65318  23.232   3.249  49.700
73395W        W65319  19.721  45.217  52.884
73396W        W65320  42.212  33.225  52.863
73397W        W65321  15.753   2.793  51.978
73398W        W65322  17.724   1.286  52.884
73399W        W65323  43.181  26.749  51.074
73400W        W65324  25.233  14.726  51.068
73401W        W65325  10.243  48.219  49.707
73402W        W65326  33.220   5.279  51.531
73403W        W65327   5.753  48.190  52.432
73404W        W65328  12.769  18.741  50.606
73405W        W65329  39.217  18.242  53.775
73406W        W65330  27.738  43.201  50.152
73407W        W65331  12.738  25.221  53.781
73408W        W65332  19.228  47.189  53.804
73409W        W65333  15.751  47.681  53.350
73410W        W65334   4.244   3.277  50.128
73411W        W65335  41.201  11.764  53.316
73412W        W65336  38.187  17.751  50.620
73413W        W65337  46.205  15.765  50.133
73414W        W65338  39.708   1.274  49.683
73415W        W65339  35.218  38.715  51.526
73416W        W65340  13.276  41.218  49.686
73417W        W65341  22.243  43.222  50.601
73418W        W65342  25.721  20.219  51.043
73419W        W65343   4.288  44.691  51.974
73420W        W65344  23.753  48.196  50.592
73421W        W65345  26.219  23.222  50.599
73422W        W65346  37.190  21.758  50.616
73423W        W65347  19.220  26.741  53.790
73424W        W65348  42.697  43.679  51.041
73425W        W65349  10.266   0.286  51.973
73426W        W65350  30.214  17.745  50.592
73427W        W65351  40.715  40.687  53.775
73428W        W65352  38.702  24.748  51.964
73429W        W65353  35.739  12.250  53.774
73430W        W65354  11.739  29.745  51.505
73431W        W65355  17.234  17.770  51.076
73432W        W65356   7.774  46.695  50.596
73433W        W65357  36.208  23.757  53.347
73434W        W65358  36.717  41.721  52.407
73435W        W65359  43.197  26.715  50.133
73436W        W65360  29.748  11.247  50.136
73437W        W65361  14.232  42.710  50.165
73438W        W65362   8.279  32.244  50.620
73439W        W65363  10.778  23.243  50.134
73440W        W65364  28.209   7.248  49.682
73441W        W65365  13.268  12.255  52.859
73442W        W65366  10.253  11.264  52.432
73443W        W65367   5.768  38.214  53.337
73444W        W65368  20.722   4.765  51.983
73445W        W65369  41.229  41.231  51.511
73446W        W65370  15.256   9.772  49.689
73447W        W65371  26.251   6.276  52.416
73448W        W65372  41.725   7.758  53.794
73449W        W65373  39.232  29.702  52.435
73450W        W65374  43.195  18.245  51.043
73451W        W65375  37.218  47.672  53.815
73452W        W65376  22.746   8.272  49.670
73453W        W65377  36.210  20.220  49.665
73454W        W65378  46.705  13.764  53.343
73455W        W65379  16.259  43.700  52.882
73456W        W65380  27.209  34.703  49.699
73457W        W65381  14.774  35.694  50.157
73458W        W65382  32.744   8.747  51.061
73459W        W65383   5.281  23.730  51.960
73460W        W65384  42.220  36.731  50.606
73461W        W65385  34.740  16.225  53.325
73462W        W65386  46.693  10.743  51.972
73463W        W65387   1.779  24.733  50.601
73464W        W65388  32.741  42.205  51.952
73465W        W65389  14.754  25.738  52.428
73466W        W65390   3.266  43.226  50.578
73467W        W65391  38.206  16.730  53.815
73468W        W65392   2.764  43.717  49.681
73469W        W65393  13.753  40.713  52.879
73470W        W65394  47.717  33.234  51.535
73471W        W65395   5.251  32.743  51.035
73472W        W65396  26.750  12.738  52.438
73473W        W65397  43.179  22.263  49.700
73474W        W65398  32.237  28.710  51.979
73475W        W65399  34.710  17.253  52.445
73476W        W65400  47.213  10.261  49.677
73477W        W65401  14.743  42.729  50.126
73478W        W65402   3.260  11.236  51.503
73479W        W65403   3.277  33.736  51.053
73480W        W65404  35.207  37.711  50.144
73481W        W65405  37.729   5.248  53.782
73482W        W65406  22.255  14.261  51.050
73483W        W65407  38.236   3.263  53.336
73484W        W65408  37.199  14.774  53.331
73485W        W65409  41.197  16.261  53.345
73486W        W65410  35.723  47.718  51.512
73487W        W65411  33.231  25.236  52.873
73488W        W65412   2.777  23.721  53.346
73489W        W65413  12.271  29.249  50.145
73490W        W65414  19.764  11.280  50.143
73491W        W65415   7.765  44.700  52.438
73492W        W65416  18.747  27.253  52.440
73493W        W65417  32.214  11.281  51.043
73494W        W65418  35.210  38.233  53.778
73495W        W65419  37.690  12.732  52.417
73496W        W65420  29.745   3.290  50.618
73497W        W65421  18.720  15.253  51.041
73498W        W65422  11.246  17.758  49.682
73499W        W65423  41.189  39.195  51.040
73500W        W65424  17.763   1.259  53.328
73501W        W65425  28.215  39.692  51.058
73502W        W65426  24.725  28.733  51.515
73503W        W65427  15.253  30.220  53.340
73504W        W65428  40.205  17.747  50.591
73505W        W65429  24.732  17.723  53.775
73506W        W65430  35.697  27.243  51.073
73507W        W65431  23.228  28.214  53.341
73508W        W65432  44.692  17.753  53.347
73509W        W65433  38.211   0.296  50.134
73510W        W65434   9.246  22.751  50.601
73511W        W65435   5.280  35.734  53.809
73512W        W65436  42.212   0.778  49.694
73513W        W65437  42.219  42.193  53.791
73514W        W65438  14.271  26.707  51.965
73515W        W65439  43.709  17.222  53.790
73516W        W65440  41.718  24.251  51.972
73517W        W65441   5.788  18.731  51.059
73518W        W65442   2.772  45.701  53.316
73519W        W65443  14.246  16.255  50.617
73520W        W65444   1.777   7.244  49.669
73521W        W65445  13.732   8.748  50.587
73522W        W65446  38.688  31.234  53.794
73523W        W65447  26.751  24.221  51.036
73524W        W65448   9.757  11.770  50.152
73525W        W65449  45.198  31.715  52.419
73526W        W65450  18.238  28.205  51.521
73527W        W65451  15.252  18.240  53.343
73528W        W65452  17.730  21.230  52.432
73529W        W65453  24.224  21.241  52.404
73530W        W65454  19.744   1.274  52.406
73531W        W65455  42.211  30.745  50.151
73532W        W65456  40.204  33.200  51.963
73533W        W65457  46.199  33.221  53.804
73534W        W65458  21.727  33.224  50.617
73535W        W65459   1.255  41.723  50.146
73536W        W65460  11.766   9.252  50.583
73537W        W65461  37.220  41.212  52.444
73538W        W65462  32.733  23.726  52.901
73539W        W65463  27.252  38.216  50.162
73540W        W65464  28.703   4.281  50.613
73541W        W65465   7.754   0.284  51.056
73542W        W65466   7.272   4.745  50.126
73543W        W65467  13.743  15.771  53.783
73544W        W65468  34.214  25.753  53.790
73545W        W65469  24.236  38.190  53.329
73546W        W65470  21.744   9.243  52.900
73547W        W65471  13.775  26.748  51.964
73548W        W65472   5.744  12.276  51.064
73549W        W65473  15.252  22.722  51.072
73550W        W65474  20.242   8.245  53.787
73551W        W65475   3.254  12.267  51.962
73552W        W65476  17.248   3.247  51.520
73553W        W65477  28.224  46.719  52.886
73554W        W65478  22.755  10.768  50.155
73555W        W65479  33.241  27.225  51.494
73556W        W65480  34.712  43.715  49.699
73557W        W65481  16.271   5.779  53.329
73558W        W65482   0.270  27.715  51.986
73559W        W65483  27.734  14.250  49.686
73560W        W65484  22.745  21.727  51.987
73561W        W65485   1.292  24.755  51.975
73562W        W65486  14.771  18.260  50.619
73563W        W65487  42.682  21.745  49.669
73564W        W65488   8.257  25.753  51.984
73565W        W65489  39.692  41.727  53.360
73566W        W65490  21.219  21.257  51.064
73567W        W65491  14.240  41.728  52.882
73568W        W65492  15.238   1.290  50.590
73569W        W65493  40.722  11.252  53.352
73570W        W65494   6.259  32.733  51.051
73571W        W65495  45.204   9.240  51.057
73572W        W65496   0.297  16.738  49.676
73573W        W65497  20.738  13.251  51.079
73574W        W65498  32.713  16.746  53.787
73575W        W65499  47.711  22.223  53.344
73576W        W65500  36.216   6.242  52.867
73577W        W65501  15.752  45.687  53.805
73578W        W65502   5.741  27.711  53.786
73579W        W65503  38.687   6.774  51.983
73580W        W65504   2.766  29.716  49.665
73581W        W65505  18.759  28.253  50.152
73582W        W65506  21.747  38.234  52.890
73583W        W65507   4.751  22.745  51.047
73584W        W65508   9.247   0.773  51.075
73585W        W65509  20.764  46.694  50.130
73586W        W65510  10.756  23.221  50.577
73587W        W65511  34.718  43.699  53.329
73588W        W65512  47.700   5.250  52.901
73589W        W65513   0.778  19.254  52.889
73590W        W65514  21.750   7.755  49.670
73591W        W65515  32.206  29.218  53.353
73592W        W65516   1.297  24.231  50.137
73593W        W65517   9.257  18.725  50.610
73594W        W65518   8.250  31.728  51.535
73595W        W65519  19.733   2.792  53.775
73596W        W65520  31.246  23.261  50.616
73597W        W65521   0.774   6.258  52.445
73598W        W65522  24.256  42.694  51.514
73599W        W65523  32.225  35.221  51.498
73600W        W65524  23.749  27.720  53.331
73601W        W65525  41.217  44.220  52.431
73602W        W65526   8.762   6.251  51.509
73603W        W65527  36.193  11.254  52.891
73604W        W65528  26.220  26.209  53.798
73605W        W65529  29.728  48.209  53.805
73606W        W65530  40.695  46.220  52.877
73607W        W65531   3.756  42.209  53.776
73608W        W65532  15.256  45.184  53.793
73609W        W65533  14.250  22.757  51.974
73610W        W65534   3.274   2.795  51.971
73611W        W65535   0.292   5.781  50.153
73612W        W65536  21.761   1.761  52.890
73613W        W65537  34.227  35.697  49.699
73614W        W65538  41.706  18.741  53.814
73615W        W65539  28.734  14.248  50.609
73616W        W65540  28.743  34.213  51.535
73617W        W65541  37.225  39.226  53.356
73618W        W65542  13.264  32.701  50.594
73619W        W65543  43.710  30.221  52.879
73620W        W65544  27.231  11.774  50.161
73621W        W65545  15.771  44.694  53.341
73622W        W65546  46.205   8.741  51.977
73623W        W65547  24.750  15.275  52.868
73624W        W65548  24.747  46.218  51.973
73625W        W65549  34.236  28.714  49.702
73626W        W65550  42.723  29.219  52.412
73627W        W65551   7.272  28.232  52.411
73628W        W65552   5.279  46.685  50.125
73629W        W65553  42.210  27.750  52.883
73630W        W65554  18.742  14.252  51.046
73631W        W65555  21.236  28.713  51.071
73632W        W65556  16.263  23.239  53.778
73633W        W65557  41.199  22.227  52.892
73634W        W65558   5.242  20.249  53.361
73635W        W65559  47.209   1.748  53.358
73636W        W65560  11.234  25.256  53.810
73637W        W65561  40.201  48.188  52.859
73638W        W65562   8.781  17.723  49.674
73639W        W65563  46.706  34.239  51.036
73640W        W65564  16.253  37.734  50.600
73641W        W65565  22.761  47.718  52.436
73642W        W65566  16.244  30.208  51.048
73643W        W65567  31.716  10.758  50.610
73644W        W65568  12.771   4.263  51.042
73645W        W65569  16.751   8.750  49.709
73646W        W65570  24.219  23.739  52.882
73647W        W65571  11.252   4.765  52.880
73648W        W65572  23.245   8.261  52.868
73649W        W65573  21.220  31.702  51.519
73650W        W65574  27.745  30.713  50.140
73651W        W65575  37.737  33.203  51.069
73652W        W65576  25.220  33.238  52.426
73653W        W65577  47.709  33.220  50.139
73654W        W65578  29.707  20.217  51.985
73655W        W65579  43.216  23.229  53.798
73656W        W65580  17.259  19.218  53.351
73657W        W65581  46.690  39.703  49.686
73658W        W65582  47.699  45.213  51.533
73659W        W65583  16.731  17.225  51.074
73660W        W65584  34.705  38.720  51.954
73661W        W65585  35.232  18.255  52.894
73662W        W65586  21.721  40.713  51.957
73663W        W65587   1.791  14.232  51.075
73664W        W65588  20.242   7.784  50.139
73665W        W65589   7.251  24.249  51.955
73666W        W65590  23.220  43.199  52.435
73667W        W65591   0.293  32.701  53.359
73668W        W65592  42.728  20.240  51.992
73669W        W65593  26.742   1.779  51.042
73670W        W65594   4.266  39.201  51.044
73671W        W65595  36.734  45.718  51.068
73672W        W65596  44.678  34.204  51.065
73673W        W65597  28.233  29.203  49.689
73674W        W65598  41.727  48.208  49.696
73675W        W65599  26.715   2.284  51.960
73676W        W65600  26.240  14.745  49.701
73677W        W65601  33.209  11.731  50.605
73678W        W65602  41.701  11.244  49.666
73679W        W65603  29.750  40.203  53.815
73680W        W65604  31.204  18.728  53.336
73681W        W65605   6.740  26.706  51.966
73682W        W65606  32.696   0.761  53.803
73683W        W65607  21.221  32.240  52.429
73684W        W65608  38.236  18.737  53.808
73685W        W65609  37.690  29.735  53.781
73686W        W65610  34.228  36.231  52.877
73687W        W65611   0.760  37.196  51.059
73688W        W65612  15.733  35.219  52.904
73689W        W65613   8.255  37.703  52.405
73690W        W65614  13.269  18.231  52.862
73691W        W65615  22.762  38.215  51.965
73692W        W65616  21.230  19.729  50.145
73693W        W65617   8.761  33.233  51.490
73694W        W65618  13.754  23.213  51.949
73695W        W65619  15.763   7.768  52.888
73696W        W65620  12.265  14.272  51.512
73697W        W65621  39.715   7.248  50.162
73698W        W65622  18.242  30.244  51.527
73699W        W65623  12.242   1.251  50.616
73700W        W65624  48.172  36.234  52.438
73701W        W65625  47.192   1.772  50.620
73702W        W65626  15.257  40.188  52.876
73703W        W65627   9.250   4.749  51.056
73704W        W65628  41.190  22.252  49.703
73705W        W65629  19.230   6.286  51.070
73706W        W65630  42.187   3.256  52.899
73707W        W65631   3.786  25.740  52.879
73708W        W65632  38.189   8.248  49.691
73709W        W65633  10.765  39.193  49.681
73710W        W65634  16.737  24.212  51.501
73711W        W65635  39.729  37.709  53.322
73712W        W65636  24.245  32.202  51.040
73713W        W65637  23.711  11.257  50.617
73714W        W65638  39.701  23.235  52.431
73715W        W65639  24.727  29.722  51.035
73716W        W65640  44.205  43.679  49.678
73717W        W65641  14.747  33.208  51.046
73718W        W65642   9.764  29.248  50.603
73719W        W65643   4.273   3.254  53.790
73720W        W65644  44.711  34.206  51.508
73721W        W65645   6.246  14.234  51.057
73722W        W65646   1.778   6.289  53.783
73723W        W65647  32.711  48.194  53.798
73724W        W65648  33.207  20.743  51.980
73725W        W65649  15.238  17.243  52.903
73726W        W65650  24.713  31.700  52.433
73727W        W65651   7.246  16.766  50.608
73728W        W65652  37.203  13.247  49.697
73729W        W65653  16.748  21.263  52.895
73730W        W65654  17.235  28.231  52.897
73731W        W65655  29.243  39.731  50.602
73732W        W65656   9.244  23.224  51.950
73733W        W65657  23.214   9.268  51.500
73734W        W65658   5.246  16.264  51.991
73735W        W65659  41.206  36.720  50.578
73736W        W65660  48.174   1.783  51.989
73737W        W65661   5.277  17.264  51.527
73738W        W65662  25.238  12.765  49.692
73739W        W65663   2.785   5.771  50.156
73740W        W65664  30.725   2.766  51.073
73741W        W65665   7.766  17.726  50.607
73742W        W65666  16.230   0.271  49.677
73743W        W65667  30.236  33.205  51.505
73744W        W65668  25.724  44.219  49.674
73745W        W65669  19.725  22.755  52.889
73746W        W65670  23.748  11.757  52.895
73747W        W65671   5.755  29.212  51.964
73748W        W65672  22.739  33.708  53.343
73749W        W65673   8.241  32.715  50.608
73750W        W65674  43.680  20.748  50.145
73751W        W65675  19.745  28.219  50.136
73752W        W65676  32.216  42.691  50.130
73753W        W65677  30.243  31.207  50.160
73754W        W65678  27.733   1.262  52.423
73755W        W65679   2.269   9.770  52.879
73756W        W65680  29.219  46.699  50.151
73757W        W65681  44.711  13.745  52.426
73758W        W65682  17.759  20.264  50.142
73759W        W65683  42.203  30.204  52.428
73760W        W65684  19.767  27.206  51.499
73761W        W65685  30.228   4.286  51.510
73762W        W65686  16.232  39.228  51.965
73763W        W65687  15.752   9.739  51.504
73764W        W65688  31.744  34.728  51.498
73765W        W65689   5.757  15.726  52.861
73766W        W65690  30.737  13.264  50.589
73767W        W65691  37.711  31.237  51.958
73768W        W65692  42.201   0.754  51.509
73769W        W65693  44.219  44.218  50.580
73770W        W65694  33.217  43.691  49.668
73771W        W65695  18.740  14.745  52.442
73772W        W65696  22.743   7.262  50.603
73773W        W65697  44.210   3.791  50.135
73774W        W65698  23.746  15.773  52.904
73775W        W65699  27.740  43.218  52.902
73776W        W65700  46.692  39.687  51.974
73777W        W65701  17.770  43.704  51.522
73778W        W65702  13.770   4.272  51.058
73779W        W65703  46.690   6.272  49.696
73780W        W65704  15.768  41.690  52.443
73781W        W65705  44.681   6.746  51.534
73782W        W65706  47.189  39.701  51.509
73783W        W65707  28.236  44.213  50.140
73784W        W65708  17.264  21.761  51.973
73785W        W65709  44.180  29.231  52.864
73786W        W65710  22.726   9.760  51.522
73787W        W65711  31.231  13.755  49.700
73788W        W65712   0.791  47.718  51.976
73789W        W65713   7.751  31.217  51.949
73790W        W65714  25.253  29.227  53.333
73791W        W65715   3.287  16.273  51.520
73792W        W65716  11.264  28.237  51.965
73793W        W65717  44.688   9.781  50.122
73794W        W65718  42.721  17.724  51.501
73795W        W65719  20.256  10.264  53.316
73796W        W65720  18.738  19.731  51.966
73797W        W65721  32.203  45.704  51.979
73798W        W65722   4.752  12.241  51.035
73799W        W65723  37.716  22.726  51.517
73800W        W65724   5.269  20.258  51.532
73801W        W65725  27.726  21.727  53.779
73802W        W65726  42.682  47.706  52.426
73803W        W65727  29.242  43.682  49.668
73804W        W65728  29.745  42.215  52.429
73805W        W65729  48.172  17.770  50.622
73806W        W65730  39.734  34.237  51.986
73807W        W65731  39.721  34.709  51.514
73808W        W65732  26.208   6.270  50.578
73809W        W65733   0.261  45.695  52.414
73810W        W65734  32.702  18.742  51.061
73811W        W65735  23.721   0.798  53.333
73812W        W65736  35.199  28.709  52.903
73813W        W65737  32.746  24.257  50.620
73814W        W65738  29.212  44.677  51.976
73815W        W65739  18.244  36.219  51.494
73816W        W65740  35.703  13.230  53.773
73817W        W65741  37.717  37.231  50.143
73818W        W65742  36.223  21.261  49.680
73819W        W65743  10.776  42.185  53.346
73820W        W65744  33.228   7.253  50.146
73821W        W65745  23.231   4.245  52.436
73822W        W65746  23.735  27.711  49.684
73823W        W65747  38.197  34.209  51.979
73824W        W65748  35.729  35.200  52.413
73825W        W65749  36.704  39.187  53.356
73826W        W65750  37.209  15.256  50.603
73827W        W65751  24.255  33.718  52.410
73828W        W65752  29.242  26.249  52.419
73829W        W65753  46.186  26.240  52.899
73830W        W65754  41.220  28.739  53.346
73831W        W65755  25.745  21.256  49.697
73832W        W65756  31.730  22.732  49.688
73833W        W65757  36.704  22.231  52.421
73834W        W65758  34.724  30.743  53.345
73835W        W65759  24.236  47.203  51.051
73836W        W65760  41.728  37.201  52.887
73837W        W65761  20.235  19.236  53.783
73838W        W65762  41.208  22.231  51.062
73839W        W65763   6.768   1.781  50.606
73840W        W65764  18.754  41.206  53.345
73841W        W65765  17.757  29.732  53.805
73842W        W65766  34.238  15.247  49.669
73843W        W65767  37.203  21.256  50.146
73844W        W65768   2.760  28.213  53.795
73845W        W65769  41.222  38.215  51.072
73846W        W65770  22.222   6.273  53.337
73847W        W65771   8.760  36.720  53.802
73848W        W65772  37.688   8.271  53.328
73849W        W65773   6.741  19.257  52.889
73850W        W65774  25.231  24.754  49.668
73851W        W65775  13.229  14.267  53.321
73852W        W65776  42.226  40.210  51.991
73853W        W65777  39.228  12.742  52.438
73854W        W65778  31.740  16.235  50.157
73855W        W65779  22.261  41.208  52.875
73856W        W65780  38.198  21.725  50.592
73857W        W65781  18.230  21.744  49.672
73858W        W65782  41.706  43.186  51.520
73859W        W65783  23.259   3.770  53.351
73860W        W65784  22.748  37.199  52.448
73861W        W65785   8.267   8.785  52.438
73862W        W65786  34.195  32.211  52.418
73863W        W65787  33.218  28.230  51.533
73864W        W65788  14.733  21.721  50.129
73865W        W65789   5.765  48.175  53.348
73866W        W65790  37.198  18.232  53.352
73867W        W65791  46.699   3.788  53.319
73868W        W65792   2.749  20.755  51.980
73869W        W65793  46.685   9.758  49.666
73870W        W65794   6.785  11.762  52.433
73871W        W65795  46.211  18.756  53.816
73872W        W65796  46.677  30.204  52.441
73873W        W65797  13.244  45.712  51.042
73874W        W65798  24.242  21.243  52.893
73875W        W65799  34.206  28.240  50.615
73876W        W65800   4.268  45.684  51.957
73877W        W65801  41.718   9.757  52.432
73878W        W65802  37.228  27.216  49.676
73879W        W65803   4.764   2.260  53.356
73880W        W65804  10.781   8.239  52.415
73881W        W65805  13.754  42.214  51.958
73882W        W65806  12.767  47.707  51.961
73883W        W65807  11.773  14.727  51.036
73884W        W65808  11.749   4.764  49.680
73885W        W65809  36.726  33.235  53.316
73886W        W65810  27.251  32.736  50.147
73887W        W65811  16.762  33.221  50.159
73888W        W65812  29.211  33.222  50.611
73889W        W65813  32.700  29.744  49.668
73890W        W65814  31.231   5.762  49.690
73891W        W65815   2.265   9.751  51.971
73892W        W65816  46.684  41.225  51.952
73893W        W65817   4.244  18.250  51.953
73894W        W65818   1.262  22.723  50.620
73895W        W65819  20.241  27.223  53.806
73896W        W65820  22.246  43.715  49.698
73897W        W65821  38.698  30.720  51.519
73898W        W65822  39.206  37.228  52.867
73899W        W65823  18.732  24.259  49.671
73900W        W65824   2.267  40.202  49.672
73901W        W65825   8.742  12.739  52.891
73902W        W65826  26.730   9.247  53.344
73903W        W65827   1.279   1.756  53.351
73904W        W65828  45.722   2.781  51.964
73905W        W65829  14.753  14.229  49.676
73906W        W65830   0.782  23.739  51.954
73907W        W65831   7.781   2.775  53.343
73908W        W65832  35.216  47.185  52.408
73909W        W65833  23.752  18.226  51.978
73910W        W65834  15.225  40.207  51.509
73911W        W65835   2.263  37.233  52.407
73912W        W65836  32.226  44.724  53.336
73913W        W65837  42.209  30.208  53.794
73914W        W65838  32.701   0.262  52.867
73915W        W65839  29.243  34.699  51.037
73916W        W65840  18.221  16.250  53.815
73917W        W65841   2.748  21.242  50.612
73918W        W65842   0.261   3.272  51.047
73919W        W65843  32.225   1.772  53.329
73920W        W65844  45.724   7.251  51.977
73921W        W65845  11.753  38.734  51.951
73922W        W65846   4.287   0.759  50.151
73923W        W65847  11.281  42.681  53.809
73924W        W65848  43.189  21.720  49.684
73925W        W65849  13.741   2.258  50.145
73926W        W65850  28.248  43.212  50.588
73927W        W65851  30.743  13.775  49.695
73928W        W65852  14.246  21.723  50.579
73929W        W65853  26.731  26.728  50.589
73930W        W65854  43.696  14.733  52.896
73931W        W65855  44.224  37.195  50.600
73932W        W65856   3.780  38.188  49.680
73933W        W65857  28.226  27.731  51.498
73934W        W65858  12.730  27.754  53.811
73935W        W65859  42.680  25.732  52.403
73936W        W65860  40.731  23.259  50.582
73937W        W65861  35.223  30.721  51.060
73938W        W65862  28.223   4.276  50.157
73939W        W65863  21.232  46.182  51.490
73940W        W65864  16.749   8.775  50.135
73941W        W65865   3.762  15.268  51.958
73942W        W65866  24.712   1.283  50.584
73943W        W65867  40.191  36.723  53.780
73944W        W65868   7.267   2.778  51.511
73945W        W65869   5.268   2.747  53.350
73946W        W65870  40.208  39.697  52.444
73947W        W65871  30.216  16.226  51.968
73948W        W65872  30.703  42.693  53.782
73949W        W65873  25.220  26.253  50.157
73950W        W65874   2.285  21.753  49.669
73951W        W65875  31.209   8.243  51.515
73952W        W65876   6.262  17.222  49.673
73953W        W65877   1.270  41.693  52.417
73954W        W65878  18.761  11.273  53.330
73955W        W65879  20.748   4.748  53.340
73956W        W65880  13.228  11.776  50.141
73957W        W65881  11.752  32.745  50.615
73958W        W65882  40.191  16.737  52.423
73959W        W65883  13.732  32.211  53.347
73960W        W65884  48.193  22.756  53.331
73961W        W65885   4.293  11.763  50.143
73962W        W65886  31.720  24.251  51.531
73963W        W65887  18.726  32.711  53.319
73964W        W65888  39.218  42.688  51.069
73965W        W65889  46.223  13.770  52.903
73966W        W65890  36.219  39.717  51.507
73967W        W65891  11.267  37.693  50.166
73968W        W65892  25.720  21.260  52.417
73969W        W65893  39.710  43.203  50.143
73970W        W65894  45.177  33.718  53.342
73971W        W65895  19.740  41.183  52.426
73972W        W65896  14.748  12.771  53.351
73973W        W65897  14.266  11.749  49.693
73974W        W65898  34.201  37.202  51.974
73975W        W65899  34.211  38.235  50.121
73976W        W65900   1.281  16.759  51.056
73977W        W65901  36.693  40.727  49.701
73978W        W65902   1.789   0.251  50.140
73979W        W65903  27.212  42.680  53.352
73980W        W65904  41.719   1.780  49.674
73981W        W65905   4.744  40.694  51.981
73982W        W65906  46.201   8.762  51.054
73983W        W65907  26.215  37.725  53.774
73984W        W65908  13.252  31.244  53.333
73985W        W65909  13.759  20.717  50.163
73986W        W65910   7.279  16.233  52.434
73987W        W65911  14.768  17.767  51.072
73988W        W65912  19.267  28.227  53.330
73989W        W65913  28.749  10.264  51.033
73990W        W65914  35.708   5.276  51.967
73991W        W65915  22.714  15.761  50.155
73992W        W65916   8.761  37.712  51.512
73993W        W65917  22.722   4.271  50.583
73994W        W65918  44.719  43.699  51.059
73995W        W65919   4.278  22.240  52.880
73996W        W65920  47.188  32.733  52.902
73997W        W65921   5.242  14.746  53.343
73998W        W65922  26.748   6.764  51.069
73999W        W65923  48.198   7.261  52.899
74000W        W65924  17.227  20.744  50.616
74001W        W65925   0.257  28.234  52.860
74002W        W65926   3.777  17.265  51.036
74003W        W65927   5.788  44.200  52.860
74004W        W65928  36.717  39.707  53.317
74005W        W65929  32.218  10.256  53.800
74006W        W65930  47.177  47.672  50.588
74007W        W65931  44.206  22.759  53.815
74008W        W65932  11.741   7.783  51.953
74009W        W65933  24.728  29.708  50.605
74010W        W65934  27.223  47.220  53.334
74011W        W65935  44.207  32.218  51.077
74012W        W65936  28.733  27.739  50.617
74013W        W65937   3.252  35.198  51.058
74014W        W65938  31.705   1.281  53.359
74015W        W65939  14.759   8.280  52.904
74016W        W65940   1.261  21.748  49.695
74017W        W65941   8.781  40.195  53.359
74018W        W65942  29.240   5.782  50.611
74019W        W65943  12.255  12.746  51.528
74020W        W65944  27.721  40.697  52.860
74021W        W65945   9.254  36.737  52.897
74022W        W65946   3.770  41.689  51.990
74023W        W65947  41.220   5.789  50.593
74024W        W65948  31.234   1.267  52.448
74025W        W65949  18.252  25.747  50.588
74026W        W65950   7.284  24.745  50.140
74027W        W65951  13.754  22.758  50.123
74028W        W65952  40.705  21.759  53.788
74029W        W65953   8.238  21.255  51.515
74030W        W65954  29.231  12.763  50.616
74031W        W65955  35.218   1.758  50.148
74032W        W65956  28.745  37.711  51.516
74033W        W65957  32.732  18.755  53.353
74034W        W65958  40.686  40.684  53.361
74035W        W65959  16.769  21.737  50.581
74036W        W65960   2.756   8.752  49.675
74037W        W65961  35.705   5.745  51.492
74038W        W65962  13.275  12.271  50.166
74039W        W65963  44.191  12.250  53.790
74040W        W65964  26.233  28.250  51.527
74041W        W65965  44.721  12.746  53.775
74042W        W65966  10.245  11.739  51.522
74043W        W65967  35.738   3.263  52.420
74044W        W65968  32.740  29.723  51.513
74045W        W65969  22.713  16.767  51.039
74046W        W65970  42.692  20.756  49.677
74047W        W65971  44.222  20.222  51.510
74048W        W65972  14.263  37.712  50.158
74049W        W65973  46.221   6.780  52.411
74050W        W65974  42.208  27.245  50.581
74051W        W65975  43.188   7.786  51.991
74052W        W65976  25.253  24.255  49.684
74053W        W65977   5.277  19.258  51.982
74054W        W65978  14.248  14.256  50.141
74055W        W65979  21.731  14.245  51.041
74056W        W65980  27.226   8.742  52.435
74057W        W65981  43.705  29.732  53.346
74058W        W65982  39.685  13.265  52.417
74059W        W65983  17.762  18.738  49.685
74060W        W65984  31.238  33.736  51.066
74061W        W65985  17.765  10.275  50.155
74062W        W65986   1.788   9.770  49.668
74063W        W65987  27.238  29.228  50.593
74064W        W65988  38.227  10.236  52.405
74065W        W65989  29.744  40.721  51.504
74066W        W65990  10.758  18.759  52.433
74067W        W65991   5.763  32.198  49.688
74068W        W65992  31.248  32.243  52.874
74069W        W65993   6.285  22.752  52.438
74070W        W65994  36.227  14.735  51.051
74071W        W65995  11.750  32.199  50.598
74072W        W65996  10.754  24.715  49.690
74073W        W65997   4.760  46.699  51.045
74074W        W65998  40.691   0.262  52.878
74075W        W65999  37.730  15.759  53.798
74076W        W66000  42.218  48.177  49.674
74077W        W66001  12.754  13.758  53.332
74078W        W66002  42.683  25.256  52.894
74079W        W66003  33.740  46.701  50.163
74080W        W66004   1.292  20.247  50.138
74081W        W66005  31.236  30.736  52.880
74082W        W66006  28.750  12.243  51.514
74083W        W66007  38.731  37.698  50.139
74084W        W66008  12.249   3.275  51.070
74085W        W66009   9.761  25.224  51.509
74086W        W66010  16.261  42.713  49.681
74087W        W66011  17.242  24.260  50.147
74088W        W66012  21.739  20.725  51.528
74089W        W66013  41.718  30.230  52.422
74090W        W66014  38.689  12.771  52.900
74091W        W66015  37.216  45.714  52.424
74092W        W66016  30.713  15.743  50.124
74093W        W66017  46.709   0.758  50.619
74094W        W66018  32.239  16.234  51.968
74095W        W66019  45.724  20.233  52.872
74096W        W66020  22.213   9.770  49.670
74097W        W66021  12.769  35.712  50.128
74098W        W66022  15.234  24.714  50.146
74099W        W66023   0.253   6.765  53.814
74100W        W66024  32.234  21.259  52.866
74101W        W66025   6.269  21.738  52.901
74102W        W66026  43.682  33.244  52.426
74103W        W66027  38.233  37.721  50.618
74104W        W66028   8.268  18.263  53.793
74105W        W66029  18.756  13.270  51.958
74106W        W66030   8.284  44.207  52.891
74107W        W66031  40.184   5.768  53.357
74108W        W66032   9.748  24.214  51.524
74109W        W66033  24.223  22.751  52.434
74110W        W66034  16.746  26.230  52.414
74111W        W66035  22.722  34.729  52.410
74112W        W66036  18.755  24.240  53.790
74113W        W66037  32.226  25.238  52.861
74114W        W66038  38.227  34.221  50.604
74115W        W66039  22.751  44.182  51.493
74116W        W66040  33.723  12.230  52.871
74117W        W66041  47.714  17.232  53.321
74118W        W66042   3.772  35.218  51.515
74119W        W66043  44.724  25.723  53.342
74120W        W66044   2.296  41.723  51.971
74121W        W66045  14.264   8.741  53.355
74122W        W66046   8.274  28.250  51.506
74123W        W66047  14.735  46.207  51.533
74124W        W66048  19.235  27.746  53.334
74125W        W66049  40.691  18.726  51.511
74126W        W66050  33.210  15.760  51.976
74127W        W66051  33.696  25.726  51.070
74128W        W66052  32.197   0.250  51.531
74129W        W66053  28.227  16.757  52.421
74130W        W66054  20.761  38.707  53.802
74131W        W66055  28.744  29.230  53.794
74132W        W66056  40.719  44.684  51.517
74133W        W66057   0.292  29.252  53.787
74134W        W66058  46.218  35.737  51.526
74135W        W66059  13.749  41.202  52.443
74136W        W66060  13.272  18.747  51.494
74137W        W66061  37.232  26.722  51.979
74138W        W66062  32.222   5.771  51.517
74139W        W66063  24.247  11.235  51.973
74140W        W66064  13.247  34.719  49.681
74141W        W66065  48.218  11.275  50.577
74142W        W66066  19.765  10.763  51.506
74143W        W66067   2.278  18.753  51.034
74144W        W66068  23.751   3.275  53.808
74145W        W66069  21.238  13.774  53.774
74146W        W66070   2.747  31.218  53.814
74147W        W66071   5.276  46.688  51.974
74148W        W66072  31.204   5.259  53.348
74149W        W66073  10.734  42.221  50.147
74150W        W66074  29.205   7.288  51.060
74151W        W66075  13.272  14.264  50.148
74152W        W66076  21.715  27.213  53.330
74153W        W66077   9.753  39.221  53.331
74154W        W66078  31.742  26.214  51.978
74155W        W66079  47.674  31.698  50.600
74156W        W66080  38.201  12.238  50.143
74157W        W66081  31.733  24.749  49.669
74158W        W66082  19.755   7.760  53.336
74159W        W66083  47.208  10.249  53.327
74160W        W66084  13.749  12.739  52.869
74161W        W66085  22.757  44.706  50.128
74162W        W66086  22.219  41.189  51.977
74163W        W66087   4.771  34.197  51.982
74164W        W66088  13.245  43.697  53.775
74165W        W66089   4.273  13.747  49.683
74166W        W66090  30.706  10.763  53.775
74167W        W66091  18.754   3.775  51.050
74168W        W66092   8.267  14.742  53.789
74169W        W66093  39.728  10.235  50.591
74170W        W66094  24.255  21.742  51.074
74171W        W66095  15.742  41.682  53.339
74172W        W66096  31.700   6.787  52.426
74173W        W66097   7.276  41.207  51.076
74174W        W66098   9.273  18.734  50.144
74175W        W66099  36.699  38.732  52.421
74176W        W66100   8.782  38.712  50.163
74177W        W66101  47.716   5.279  51.502
74178W        W66102  44.696  41.226  50.578
74179W        W66103  42.196  31.704  49.682
74180W        W66104  44.715   0.755  49.670
74181W        W66105  32.239  42.198  50.129
74182W        W66106  10.748  37.717  50.610
74183W        W66107   4.764  21.723  53.814
74184W        W66108  22.758  40.192  53.799
74185W        W66109  46.185  46.212  51.984
74186W        W66110  27.705  30.701  52.437
74187W        W66111  19.722  24.248  51.503
74188W        W66112  21.220  33.741  50.620
74189W        W66113  23.724  24.750  51.987
74190W        W66114  34.219  16.751  53.337
74191W        W66115  11.769  40.711  53.790
74192W        W66116  17.224   2.290  53.798
74193W        W66117   8.745  27.250  51.519
74194W        W66118  41.219   5.269  51.522
74195W        W66119   5.279  35.228  50.158
74196W        W66120  40.214  40.728  53.814
74197W        W66121   7.778  46.207  52.414
74198W        W66122   4.258  24.750  53.329
74199W        W66123  36.219  25.713  49.677
74200W        W66124   5.247  37.706  53.810
74201W        W66125  43.712  37.197  52.444
74202W        W66126  30.205  20.747  49.666
74203W        W66127  44.197  21.756  51.495
74204W        W66128   0.265  36.209  51.076
74205W        W66129   3.755  16.756  53.348
74206W        W66130   7.785  25.738  51.966
74207W        W66131  10.263   7.769  53.337
74208W        W66132   2.765  47.706  52.868
74209W        W66133  18.226  41.209  53.784
74210W        W66134  18.744   8.738  50.139
74211W        W66135  10.280  20.240  50.166
74212W        W66136  42.703  12.264  51.050
74213W        W66137  30.209  46.712  52.899
74214W        W66138  14.275   4.786  52.899
74215W        W66139  23.241  13.230  53.358
74216W        W66140  45.197  20.733  51.070
74217W        W66141  36.694  20.752  50.121
74218W        W66142  22.723  11.759  51.960
74219W        W66143  40.207   6.787  50.615
74220W        W66144  10.251  36.692  52.898
74221W        W66145  42.201  37.229  49.679
74222W        W66146  10.739  16.764  49.686
74223W        W66147  33.709  42.715  50.597
74224W        W66148  45.184  43.694  51.043
74225W        W66149  38.193  23.756  52.433
74226W        W66150  28.246  29.702  53.338
74227W        W66151  44.191   1.249  53.794
74228W        W66152  34.724  23.760  51.500
74229W        W66153  24.735  21.722  50.594
74230W        W66154  14.260   3.746  50.152
74231W        W66155  37.689   6.271  49.698
74232W        W66156  16.252  34.226  52.403
74233W        W66157  20.761   0.769  50.611
74234W        W66158   2.773  23.221  51.519
74235W        W66159  26.242  23.753  53.323
74236W        W66160  43.719  42.718  53.813
74237W        W66161  25.248  36.199  51.068
74238W        W66162  38.211  33.218  52.420
74239W        W66163  45.676  25.742  50.617
74240W        W66164   5.764  10.780  52.886
74241W        W66165  34.223  42.720  53.340
74242W        W66166  19.232  15.725  52.427
74243W        W66167  20.723   1.775  53.798
74244W        W66168   6.783  44.693  52.880
74245W        W66169  46.715  43.712  50.585
74246W        W66170  19.220  46.178  53.796
74247W        W66171   2.758   1.271  51.492
74248W        W66172  14.247  44.220  51.065
74249W        W66173  23.745  31.723  49.688
74250W        W66174  17.254  24.257  51.977
74251W        W66175  44.202   6.246  51.976
74252W        W66176  16.272  38.719  51.501
74253W        W66177  28.745   9.266  52.439
74254W        W66178  19.235  11.243  53.791
74255W        W66179  12.246  46.207  51.957
74256W        W66180  26.216  33.238  49.696
74257W        W66181  27.730  32.232  52.445
74258W        W66182  37.215  32.739  50.145
74259W        W66183  31.744  28.707  49.686
74260W        W66184  33.229  32.238  49.700
74261W        W66185   6.746   2.789  52.415
74262W        W66186  15.235  44.692  52.902
74263W        W66187  42.715  42.705  49.670
74264W        W66188  17.741  34.238  51.043
74265W        W66189  27.740   8.752  52.873
74266W        W66190  37.213  23.726  51.491
74267W        W66191   5.776   5.279  51.983
74268W        W66192   6.259  10.775  51.521
74269W        W66193   6.280  35.237  52.440
74270W        W66194  30.205  37.217  52.412
74271W        W66195  20.765  47.199  53.337
74272W        W66196  37.696  22.246  50.148
74273W        W66197  10.265  34.213  50.143
74274W        W66198  35.222  39.712  51.514
74275W        W66199  21.731  33.721  51.963
74276W        W66200  39.706  36.693  50.582
74277W        W66201  25.246  19.766  51.981
74278W        W66202  29.728  40.194  51.505
74279W        W66203  42.728  46.198  49.674
74280W        W66204  38.728  31.731  49.682
74281W        W66205  24.727  23.749  50.595
74282W        W66206  23.742  36.225  51.512
74283W        W66207  41.210  24.249  53.352
74284W        W66208  38.216   6.265  51.986
74285W        W66209  28.233   8.775  52.901
74286W        W66210   1.292  14.256  53.773
74287W        W66211  44.679  10.241  51.529
74288W        W66212  39.725  12.756  51.523
74289W        W66213  37.697  30.743  50.132
74290W        W66214   8.257  35.199  51.055
74291W        W66215  10.250  25.713  51.040
74292W        W66216  41.705  24.238  50.618
74293W        W66217  44.213  39.210  53.806
74294W        W66218  11.243  14.269  49.674
74295W        W66219  37.204  41.707  52.436
74296W        W66220  21.761  14.732  51.079
74297W        W66221  37.236  44.725  52.901
74298W        W66222  28.234   7.773  52.887
74299W        W66223   0.766  33.736  50.590
74300W        W66224  23.248  35.700  50.142
74301W        W66225  35.228  29.240  53.328
74302W        W66226  41.184   8.778  52.417
74303W        W66227   8.770  45.203  50.586
74304W        W66228   1.280  16.767  52.892
74305W        W66229  45.700  32.730  51.072
74306W        W66230  30.232  27.747  52.885
74307W        W66231  10.740   4.753  51.983
74308W        W66232  46.183   2.786  53.352
74309W        W66233   1.271   9.261  52.902
74310W        W66234  40.699  29.744  52.871
74311W        W66235   0.791  11.265  52.900
74312W        W66236  47.686  13.244  51.491
74313W        W66237  36.720  10.251  52.862
74314W        W66238  18.763  36.737  51.065
74315W        W66239  18.252  19.747  51.513
74316W        W66240  29.738  15.726  51.947
74317W        W66241  38.716  10.750  49.689
74318W        W66242  17.229  21.745  53.797
74319W        W66243  16.750   0.260  50.137
74320W        W66244  14.237  23.215  51.056
74321W        W66245  35.194  25.736  51.078
74322W        W66246  41.187  24.745  49.684
74323W        W66247  17.750   3.789  51.528
74324W        W66248  37.222   4.253  52.891
74325W        W66249  40.197  23.253  53.320
74326W        W66250  48.201  29.733  53.327
74327W        W66251  34.730   7.744  53.793
74328W        W66252  34.741  39.729  50.619
74329W        W66253  28.217  33.235  52.902
74330W        W66254  46.706   5.789  53.799
74331W        W66255  43.727  27.737  50.141
74332W        W66256  32.208  45.719  53.797
74333W        W66257  39.227   0.792  50.579
74334W        W66258  36.723  22.238  53.334
74335W        W66259  11.747  29.212  52.431
74336W        W66260  21.233   9.772  50.593
74337W        W66261  30.739  10.274  51.963
74338W        W66262  27.254  28.704  52.881
74339W        W66263  25.216  45.184  53.352
74340W        W66264  38.232   5.748  53.775
74341W        W66265  26.240   5.257  53.332
74342W        W66266  30.232  41.726  52.439
74343W        W66267  44.212   9.753  50.121
74344W        W66268  24.733  41.721  52.872
74345W        W66269  36.713   4.749  52.874
74346W        W66270   1.772  11.233  53.322
74347W        W66271  40.704  41.720  50.123
74348W        W66272  18.744  38.686  49.673
74349W        W66273  30.730  27.210  53.335
74350W        W66274  35.728  36.234  51.509
74351W        W66275  16.252   9.241  51.950
74352W        W66276  39.722  22.225  50.140
74353W        W66277  16.726  10.734  52.871
74354W        W66278  43.186  18.748  53.778
74355W        W66279   9.750   0.753  50.130
74356W        W66280  33.731  40.218  53.774
74357W        W66281  16.226  28.232  51.530
74358W        W66282  12.747  13.770  50.596
74359W        W66283   2.283  16.231  51.957
74360W        W66284  45.221  19.722  49.693
74361W        W66285  40.225   7.749  53.791
74362W        W66286  36.225  27.708  49.669
74363W        W66287  16.245  41.690  49.698
74364W        W66288  28.720  10.244  51.496
74365W        W66289  29.732   3.249  49.690
74366W        W66290  43.218  33.704  52.437
74367W        W66291   1.290  44.708  51.042
74368W        W66292  40.697   2.282  52.403
74369W        W66293  17.252   5.764  53.779
74370W        W66294  31.724  14.750  53.813
74371W        W66295  48.179  14.766  52.423
74372W        W66296  36.209  14.260  49.708
74373W        W66297  27.209  24.216  51.951
74374W        W66298   0.757  35.703  51.526
74375W        W66299  10.766  37.192  51.492
74376W        W66300  47.206   9.250  53.329
74377W        W66301  32.729  30.717  51.045
74378W        W66302  27.215  24.748  52.441
74379W        W66303  23.256  14.740  51.062
74380W        W66304  40.214  12.741  52.427
74381W        W66305   1.759  17.235  51.054
74382W        W66306  25.751  30.706  50.160
74383W        W66307  16.758  40.698  50.580
74384W        W66308   9.735  34.737  53.799
74385W        W66309  37.712  27.240  50.594
74386W        W66310  26.236  37.197  51.958
74387W        W66311  46.707  44.710  53.328
74388W        W66312  27.247  34.222  52.904
74389W        W66313  38.688  48.203  50.165
74390W        W66314  25.726  25.240  51.043
74391W        W66315  30.712  26.713  53.317
74392W        W66316  19.742  14.250  52.870
74393W        W66317  32.216  14.271  51.036
74394W        W66318  33.241  22.757  50.584
74395W        W66319   8.748  35.697  50.140
74396W        W66320  37.189   0.282  53.353
74397W        W66321  42.712  40.206  52.403
74398W        W66322  36.213  42.710  51.055
74399W        W66323  16.230  35.711  51.072
74400W        W66324  31.209  10.779  52.897
74401W        W66325  48.188  26.736  51.050
74402W        W66326   6.769  23.737  53.325
74403W        W66327  40.206  32.712  52.428
74404W        W66328   8.272  15.235  49.699
74405W        W66329   2.761  41.730  52.875
74406W        W66330  11.750  19.249  52.875
74407W        W66331  18.263  22.233  49.693
74408W        W66332  34.240  15.751  52.408
74409W        W66333  17.239  17.753  50.166
74410W        W66334  25.228   3.293  52.870
74411W        W66335  27.214  22.742  51.961
74412W        W66336  20.745  43.712  50.151
74413W        W66337   8.741  31.211  49.682
74414W        W66338  14.737  48.209  49.696
74415W        W66339  34.211   9.236  53.775
74416W        W66340  45.219  34.721  51.507
74417W        W66341   9.753   6.249  49.685
74418W        W66342  12.753  18.230  51.949
74419W        W66343  18.768  17.728  53.353
74420W        W66344  24.247  20.728  51.954
74421W        W66345  28.234  21.745  49.677
74422W        W66346  33.705  41.193  51.059
74423W        W66347   1.778  37.705  53.776
74424W        W66348  32.741  40.701  51.065
74425W        W66349  41.725  31.219  53.792
74426W        W66350  46.177  31.208  49.681
74427W        W66351  18.241  19.262  51.949
74428W        W66352  37.713   7.240  52.861
74429W        W66353   0.265  41.725  51.520
74430W        W66354  22.731   7.258  51.983
74431W        W66355  15.243  31.224  52.861
74432W        W66356  33.236  19.759  51.951
74433W        W66357   9.272  43.713  52.426
74434W        W66358  29.224  28.241  52.876
74435W        W66359  24.755   2.247  52.435
74436W        W66360  10.752  25.731  50.122
74437W        W66361   1.280  43.206  52.435
74438W        W66362  12.240  40.726  50.617
74439W        W66363  33.708  36.736  52.410
74440W        W66364  29.741  43.708  53.807
74441W        W66365  46.716  10.743  49.707
74442W        W66366  20.761  44.198  51.038
74443W        W66367   6.240   9.260  50.622
74444W        W66368  28.748  22.751  51.948
74445W        W66369  31.224  16.230  51.959
74446W        W66370  38.688  43.690  53.797
74447W        W66371   1.782  40.691  52.890
74448W        W66372  28.720  39.710  51.983
74449W        W66373  28.749  46.213  53.334
74450W        W66374  21.258  47.204  53.336
74451W        W66375  29.721  23.219  51.068
74452W        W66376  33.737   2.290  51.056
74453W        W66377   1.773  15.226  50.148
74454W        W66378  13.249  44.219  51.978
74455W        W66379  36.700   7.768  53.773
74456W        W66380  44.691  29.219  51.950
74457W        W66381  32.217  43.198  51.503
74458W        W66382  11.764  38.203  51.961
74459W        W66383  37.692  11.758  49.691
74460W        W66384   6.270  42.728  52.881
74461W        W66385  30.224  13.265  53.336
74462W        W66386   4.757  44.213  51.077
74463W        W66387  15.736  41.717  51.498
74464W        W66388  31.230  20.729  53.808
74465W        W66389  20.756  34.700  53.326
74466W        W66390  21.258  22.241  53.328
74467W        W66391  37.711  24.239  51.059
74468W        W66392  32.197  41.224  53.788
74469W        W66393  15.738  11.778  51.970
74470W        W66394  12.266  27.746  50.615
74471W        W66395   7.280  21.233  53.781
74472W        W66396  16.261  18.248  51.965
74473W        W66397  38.222  37.220  53.777
74474W        W66398  42.693  40.689  53.317
74475W        W66399  19.227  11.265  52.443
74476W        W66400  26.749  28.729  51.976
74477W        W66401  23.237   6.771  51.034
74478W        W66402  43.711  36.708  53.803
74479W        W66403  41.701  40.686  50.581
74480W        W66404  21.225  26.243  50.617
74481W        W66405  23.241  43.714  53.804
74482W        W66406  30.227  19.242  51.977
74483W        W66407  40.722   2.778  51.078
74484W        W66408   1.752   8.782  51.035
74485W        W66409  15.730  29.744  53.796
74486W        W66410  13.238  12.739  53.801
74487W        W66411   4.760  10.278  51.968
74488W        W66412   9.756  32.727  51.514
74489W        W66413  39.188  42.189  52.883
74490W        W66414  30.236  19.266  50.616
74491W        W66415   1.270  16.762  51.984
74492W        W66416  41.695   1.775  52.903
74493W        W66417  41.204  11.779  51.523
74494W        W66418  29.203  46.201  50.612
74495W        W66419   3.272  20.248  52.429
74496W        W66420  16.256  43.704  52.447
74497W        W66421  40.231  28.247  52.445
74498W        W66422  31.215  48.214  52.439
74499W        W66423  44.206   9.256  50.607
74500W        W66424  45.192  22.230  51.525
74501W        W66425  16.758  36.719  53.352
74502W        W66426  37.704  33.727  50.133
74503W        W66427   6.782   6.750  52.875
74504W        W66428  26.713  32.227  51.505
74505W        W66429   4.263   0.797  51.531
74506W        W66430   7.746  35.240  51.534
74507W        W66431  39.198  17.249  50.591
74508W        W66432  37.716   7.780  52.420
74509W        W66433  14.237  20.220  50.150
74510W        W66434  13.774  26.245  52.898
74511W        W66435  35.710  33.199  51.530
74512W        W66436  37.715  15.756  51.975
74513W        W66437   7.252  14.733  53.357
74514W        W66438   6.783  30.737  51.502
74515W        W66439  18.222   3.775  51.961
74516W        W66440  26.710  34.713  53.778
74517W        W66441  35.697  25.750  50.618
74518W        W66442  36.232  36.219  51.964
74519W        W66443   0.274  38.733  51.492
74520W        W66444  21.230  31.220  50.611
74521W        W66445  34.237  37.732  53.806
74522W        W66446  44.211  28.719  49.668
74523W        W66447  10.773  31.709  53.812
74524W        W66448  24.747  31.736  53.359
74525W        W66449  43.223  13.270  51.512
74526W        W66450  15.762  12.766  52.416
74527W        W66451  42.200  24.751  51.035
74528W        W66452  29.242  27.734  49.701
74529W        W66453  12.740  26.217  53.335
74530W        W66454  31.235   3.292  51.490
74531W        W66455   8.755  22.249  52.429
74532W        W66456  37.206  17.771  49.678
74533W        W66457  24.250   8.255  52.863
74534W        W66458  15.732   9.271  53.789
74535W        W66459  15.761  24.251  49.709
74536W        W66460   2.746  29.245  51.957
74537W        W66461  32.729  13.752  49.695
74538W        W66462   4.780  13.735  53.787
74539W        W66463  42.697   8.286  51.534
74540W        W66464  46.678  15.243  52.863
74541W        W66465  43.687  42.203  52.439
74542W        W66466  10.273  11.736  52.442
74543W        W66467  22.746  31.239  52.413
74544W        W66468  28.210  14.767  53.793
74545W        W66469  40.718  24.709  53.340
74546W        W66470  27.753  18.764  50.594
74547W        W66471   2.283  27.234  49.698
74548W        W66472  42.706  45.679  50.138
74549W        W66473  19.753  44.225  49.686
74550W        W66474  16.271  35.692  51.986
74551W        W66475  46.721  16.759  51.950
74552W        W66476  30.715  40.214  52.870
74553W        W66477   0.755  10.745  51.513
74554W        W66478  41.214  39.233  52.428
74555W        W66479  44.688   9.751  52.405
74556W        W66480   5.751  30.244  52.417
74557W        W66481  23.723  46.175  52.863
74558W        W66482  29.728  24.219  51.501
74559W        W66483   8.773  21.727  49.700
74560W        W66484   0.274  20.731  50.583
74561W        W66485  36.693  13.760  53.338
74562W        W66486  41.713   8.772  49.675
74563W        W66487  25.211  19.239  53.348
74564W        W66488   3.283  42.684  51.077
74565W        W66489  13.731  25.227  51.969
74566W        W66490  27.754  46.178  50.160
74567W        W66491  33.706  29.744  51.077
74568W        W66492  27.214  34.733  52.430
74569W        W66493  43.215  39.687  52.874
74570W        W66494   6.744  30.205  51.962
74571W        W66495   4.248  43.216  50.615
74572W        W66496  41.692  39.202  50.589
74573W        W66497  19.723  36.215  50.137
74574W        W66498  40.731   8.759  52.403
74575W        W66499  38.719  34.200  50.136
74576W        W66500  40.188  30.730  52.427
74577W        W66501   2.762   4.261  49.691
74578W        W66502   9.761   1.752  51.035
74579W        W66503   7.240  32.730  53.348
74580W        W66504  11.256   8.254  53.340
74581W        W66505   0.255  11.758  53.795
74582W        W66506  32.200  28.714  51.068
74583W        W66507  20.730  16.741  50.149
74584W        W66508  22.251   7.749  49.708
74585W        W66509  40.221  24.749  53.797
74586W        W66510   1.784   0.268  49.675
74587W        W66511  43.197  12.236  51.065
74588W        W66512  38.706  28.733  50.618
74589W        W66513  31.221  43.195  52.433
74590W        W66514  24.722  28.716  53.341
74591W        W66515  24.751  16.237  49.682
74592W        W66516  36.196   7.270  51.516
74593W        W66517  40.728   8.261  53.320
74594W        W66518  29.747  34.200  53.811
74595W        W66519  22.740  41.692  51.982
74596W        W66520  12.752  43.202  51.493
74597W        W66521  20.723  37.707  50.139
74598W        W66522  27.722  46.681  50.141
74599W        W66523   1.769  25.237  50.150
74600W        W66524  13.254  25.708  50.596
74601W        W66525  48.193  30.743  51.510
74602W        W66526   9.250  47.211  51.512
74603W        W66527  10.237  45.695  51.054
74604W        W66528  30.234  45.225  51.530
74605W        W66529  11.759  38.234  51.519
74606W        W66530  19.220  19.221  52.869
74607W        W66531  23.737  41.226  50.152
74608W        W66532  24.710  12.776  51.949
74609W        W66533  11.733  39.195  51.975
74610W        W66534  37.724   9.735  53.346
74611W        W66535  41.188  18.224  49.690
74612W        W66536   0.762  48.177  53.808
74613W        W66537   1.253  15.748  53.811
74614W        W66538  13.760   4.292  50.144
74615W        W66539  36.705  46.176  50.610
74616W        W66540  46.177  23.750  49.670
74617W        W66541  12.752  33.719  51.979
74618W        W66542  26.217   7.755  51.953
74619W        W66543  47.191  19.257  53.352
74620W        W66544  33.222  10.277  51.491
74621W        W66545  22.743  20.247  53.326
74622W        W66546  24.217  36.208  52.435
74623W        W66547  18.725   7.744  52.899
74624W        W66548  35.727  38.692  52.865
74625W        W66549  13.730  23.248  52.404
74626W        W66550  47.215   1.790  52.886
74627W        W66551  15.731  11.779  53.796
74628W        W66552  44.722  46.708  51.988
74629W        W66553  46.677  16.766  49.698
74630W        W66554  14.258   7.764  51.525
74631W        W66555  37.232  45.225  52.414
74632W        W66556  35.719  21.725  50.588
74633W        W66557  38.704  48.193  53.350
74634W        W66558  22.751   6.765  49.693
74635W        W66559   3.252   9.264  52.900
74636W        W66560  26.209  21.720  51.958
74637W        W66561  35.214  31.239  51.972
74638W        W66562  31.202  10.279  53.783
74639W        W66563  38.234  10.779  52.887
74640W        W66564  43.679  34.719  49.704
74641W        W66565   4.273  23.758  52.886
74642W        W66566   9.752  18.254  49.674
74643W        W66567  26.709  39.211  52.428
74644W        W66568  47.206   3.747  51.521
74645W        W66569  23.744  47.187  50.618
74646W        W66570  34.211  45.197  49.686
74647W        W66571  16.767   4.772  53.815
74648W        W66572  10.278  15.243  50.604
74649W        W66573  23.739  21.754  52.429
74650W        W66574  46.174  25.246  53.333
74651W        W66575  10.260  20.248  51.512
74652W        W66576  18.262  10.254  51.058
74653W        W66577  42.197  28.747  51.061
74654W        W66578  17.222   2.786  53.790
74655W        W66579  19.260  25.221  49.672
74656W        W66580  47.220  41.213  53.781
74657W        W66581  22.741  31.714  50.136
74658W        W66582  28.210  38.724  51.062
74659W        W66583  25.214  44.696  53.802
74660W        W66584  10.268  19.245  52.869
74661W        W66585  40.199   3.792  50.131
74662W        W66586  19.249  39.232  52.443
74663W        W66587  42.728  10.244  52.443
74664W        W66588  38.227  43.179  51.522
74665W        W66589  47.689  12.755  49.701
74666W        W66590   9.279  30.723  53.810
74667W        W66591  24.750   7.284  51.533
74668W        W66592  42.219   8.746  49.674
74669W        W66593  15.739  18.753  49.681
74670W        W66594   7.268  19.242  51.530
74671W        W66595   3.771  28.213  49.694
74672W        W66596  32.234  30.741  51.060
74673W        W66597  11.249   9.770  49.689
74674W        W66598   8.275  25.225  52.421
74675W        W66599  25.258  10.770  52.448
74676W        W66600  11.245  13.242  53.342
74677W        W66601   7.264  14.270  52.899
74678W        W66602   0.767  20.728  50.578
74679W        W66603  24.255   8.275  51.504
74680W        W66604  37.737   5.750  51.985
74681W        W66605  24.217   7.255  51.041
74682W        W66606  47.205  29.749  53.322
74683W        W66607  18.252   7.240  50.143
74684W        W66608   5.778  20.237  51.050
74685W        W66609   1.749   5.761  51.059
74686W        W66610  21.242  48.181  50.123
74687W        W66611  30.232  42.204  49.670
74688W        W66612  29.721  36.197  51.070
74689W        W66613  29.711  46.206  51.974
74690W        W66614  24.758  40.690  50.612
74691W        W66615  25.711  46.178  51.044
74692W        W66616  14.237  35.210  51.037
74693W        W66617   5.744  29.749  52.875
74694W        W66618  26.249  44.715  53.359
74695W        W66619  44.189  39.205  52.440
74696W        W66620  28.718  37.724  50.147
74697W        W66621  40.699   4.291  50.588
74698W        W66622  32.704  42.690  53.335
74699W        W66623  16.227   6.766  51.965
74700W        W66624  32.738   2.290  52.430
74701W        W66625  23.715  18.231  52.404
74702W        W66626  24.213  45.221  51.990
74703W        W66627  39.713  13.260  51.967
74704W        W66628   7.240  11.745  51.986
74705W        W66629  39.221  19.239  51.983
74706W        W66630   1.755  29.222  50.592
74707W        W66631  14.756  34.703  51.988
74708W        W66632  18.741   4.750  53.793
74709W        W66633  47.204  37.196  51.989
74710W        W66634  13.229  46.676  50.601
74711W        W66635  14.771  22.243  49.673
74712W        W66636   8.768  10.763  53.361
74713W        W66637   7.749  34.700  50.147
74714W        W66638  43.196  43.717  52.417
74715W        W66639  44.681  44.194  53.809
74716W        W66640  35.202  14.739  51.036
74717W        W66641  16.745  31.731  51.512
74718W        W66642  15.769   8.752  49.675
74719W        W66643  16.724   5.290  52.863
74720W        W66644  42.214  21.226  51.987
74721W        W66645  44.207  24.254  51.505
74722W        W66646  16.242  30.727  52.874
74723W        W66647  25.757  33.709  51.506
74724W        W66648  40.209  48.211  50.622
74725W        W66649  39.721  29.249  52.413
74726W        W66650  27.243  45.719  52.866
74727W        W66651   1.755  13.260  52.419
74728W        W66652  38.210  21.722  53.332
74729W        W66653   4.275   6.242  53.795
74730W        W66654  19.745   3.759  52.901
74731W        W66655  30.237  33.730  50.605
74732W        W66656  23.738  18.244  51.511
74733W        W66657  22.761  12.263  51.959
74734W        W66658  18.251  17.730  50.128
74735W        W66659  15.229  22.753  51.501
74736W        W66660  36.214  25.230  50.617
74737W        W66661  27.229  17.223  52.890
74738W        W66662  23.243  35.231  51.058
74739W        W66663   8.759  27.223  52.442
74740W        W66664  38.736  18.734  51.522
74741W        W66665  13.234  36.228  52.871
74742W        W66666   2.779  19.249  52.880
74743W        W66667  27.716  43.206  50.612
74744W        W66668  25.219   8.266  50.123
74745W        W66669  26.248  22.222  51.517
74746W        W66670  19.725  15.754  50.594
74747W        W66671   5.286  30.247  49.665
74748W        W66672   1.783  19.730  51.495
74749W        W66673  32.246   9.258  51.975
74750W        W66674   0.273   3.750  53.355
74751W        W66675   3.260  48.187  49.684
74752W        W66676  10.747   1.276  52.409
74753W        W66677  10.756  19.764  49.699
74754W        W66678   9.271  45.711  52.408
74755W        W66679  44.204  41.208  51.495
74756W        W66680  22.748  16.270  51.970
74757W        W66681  19.253  29.230  53.319
74758W        W66682  24.711  43.714  52.895
74759W        W66683  13.744  33.718  49.697
74760W        W66684  16.255   7.765  52.420
74761W        W66685  18.224   8.254  53.316
74762W        W66686  13.772  42.696  51.509
74763W        W66687  39.734  43.203  51.981
74764W        W66688  19.751  34.207  49.682
74765W        W66689  31.718  10.266  51.070
74766W        W66690  40.721  23.243  51.991
74767W        W66691  32.230  47.702  52.442
74768W        W66692  39.692  12.233  53.806
74769W        W66693   2.790  46.684  51.952
74770W        W66694  43.705  44.677  51.051
74771W        W66695  43.180  18.726  50.139
74772W        W66696  13.234  14.753  50.595
74773W        W66697  17.756  20.229  51.043
74774W        W66698  48.212  43.716  52.902
74775W        W66699  16.247  35.193  53.806
74776W        W66700   3.262  36.199  51.977
74777W        W66701  23.744  27.732  51.514
74778W        W66702  25.240  25.756  50.614
74779W        W66703  36.710  45.208  52.897
74780W        W66704  43.718  44.695  51.950
74781W        W66705   7.781  15.757  51.952
74782W        W66706  44.703  43.193  52.443
74783W        W66707   6.762  37.728  49.693
74784W        W66708  30.225  14.764  52.868
74785W        W66709   0.279  25.719  53.317
74786W        W66710  15.774  37.190  51.074
74787W        W66711  12.732  34.229  52.415
74788W        W66712  43.687  25.222  53.342
74789W        W66713  35.237   8.258  49.673
74790W        W66714  42.192  14.264  49.690
74791W        W66715   4.778  16.241  51.055
74792W        W66716   8.273  30.246  51.525
74793W        W66717  37.698  30.237  51.041
74794W        W66718  21.240  37.699  53.327
74795W        W66719  40.688  14.252  53.331
74796W        W66720   8.258  23.734  51.513
74797W        W66721  20.230   6.269  51.061
74798W        W66722  19.263  38.198  50.131
74799W        W66723  11.743   0.279  49.668
74800W        W66724  46.681   2.280  52.891
74801W        W66725  30.248  20.723  53.808
74802W        W66726  19.245  40.708  50.605
74803W        W66727  25.253   6.262  49.683
74804W        W66728   3.772  34.236  51.045
74805W        W66729  31.746  34.225  53.319
74806W        W66730  16.246  35.199  49.690
74807W        W66731  25.243  13.275  51.510
74808W        W66732  13.258  40.719  52.404
74809W        W66733  25.220  44.187  53.346
74810W        W66734  22.241   2.769  52.860
74811W        W66735  34.232  16.256  51.044
74812W        W66736   6.751  47.177  50.581
74813W        W66737  44.693  30.220  52.415
74814W        W66738  32.717  37.735  51.523
74815W        W66739  30.729   7.284  52.899
74816W        W66740  32.223  11.277  53.346
74817W        W66741  32.199  10.735  53.798
74818W        W66742  43.682  14.770  50.165
74819W        W66743   7.271  37.727  50.600
74820W        W66744  20.749  33.232  53.799
74821W        W66745  31.719  14.263  50.123
74822W        W66746   3.252  13.730  51.502
74823W        W66747   4.264   3.261  52.895
74824W        W66748   5.762  25.231  49.667
74825W        W66749  20.756  28.706  51.500
74826W        W66750  27.713  29.747  51.984
74827W        W66751  22.747  21.736  52.899
74828W        W66752   8.277  23.224  49.709
74829W        W66753  42.704  32.206  53.808
74830W        W66754  15.227  28.253  49.678
74831W        W66755   5.779  38.232  51.965
74832W        W66756   9.241   3.282  51.503
74833W        W66757  16.239  18.721  53.809
74834W        W66758  21.716  40.719  51.513
74835W        W66759  13.265   9.738  50.579
74836W        W66760   3.292  29.707  51.973
74837W        W66761  47.686  43.223  51.520
74838W        W66762   6.245   6.755  52.877
74839W        W66763  15.748  12.771  52.894
74840W        W66764   7.276   0.789  52.405
74841W        W66765  44.210   1.752  50.145
74842W        W66766   9.735  10.235  51.989
74843W        W66767   7.738  14.236  49.690
74844W        W66768   5.281  37.217  53.815
74845W        W66769  31.722  12.746  53.354
74846W        W66770  33.713  18.751  51.972
74847W        W66771   1.751  43.724  50.132
74848W        W66772   2.269   1.780  50.121
74849W        W66773  26.208  32.722  51.508
74850W        W66774  20.741  47.710  51.983
74851W        W66775   1.265  21.235  53.329
74852W        W66776  35.717  17.733  49.702
74853W        W66777  41.226  26.236  51.961
74854W        W66778  44.710  19.239  53.318
74855W        W66779  40.719  29.739  52.437
74856W        W66780  45.712  15.229  51.976
74857W        W66781   1.276  21.715  50.125
74858W        W66782  18.742   6.773  49.706
74859W        W66783  10.279  35.193  51.039
74860W        W66784  32.742  35.706  52.412
74861W        W66785  13.235  26.754  51.047
74862W        W66786  32.227   2.267  51.055
74863W        W66787  27.246  34.215  53.359
74864W        W66788  43.692  43.704  49.696
74865W        W66789   9.780  10.269  50.125
74866W        W66790  23.729  43.210  49.682
74867W        W66791  39.713  12.746  51.956
74868W        W66792   0.764  25.757  52.864
74869W        W66793  28.236  21.720  50.601
74870W        W66794  26.243  46.205  53.359
74871W        W66795   8.273  39.201  51.066
74872W        W66796  16.272  40.692  51.527
74873W        W66797  21.247   4.765  50.150
74874W        W66798  30.212  46.680  52.431
74875W        W66799  23.243  16.737  53.334
74876W        W66800  22.261   6.287  52.436
74877W        W66801  23.231   1.761  50.584
74878W        W66802  11.259  41.209  51.946
74879W        W66803  13.267   1.760  49.674
74880W        W66804  24.252  36.734  51.531
74881W        W66805  42.692  25.228  50.124
74882W        W66806   9.243  24.719  51.523
74883W        W66807   8.761  29.739  53.772
74884W        W66808  36.234  38.721  50.580
74885W        W66809  30.749  21.729  52.879
74886W        W66810  42.723  22.221  50.577
74887W        W66811   5.754   4.267  51.510
74888W        W66812  48.204  12.763  51.057
74889W        W66813  15.760  23.757  53.347
74890W        W66814  45.198  45.704  53.807
74891W        W66815  25.720  20.265  52.430
74892W        W66816  36.223  34.730  51.078
74893W        W66817  46.714  11.759  50.121
74894W        W66818  42.196  32.712  50.590
74895W        W66819  16.749  46.217  52.411
74896W        W66820  22.218   3.747  51.976
74897W        W66821  38.211  17.761  49.705
74898W        W66822   4.748  16.240  49.665
74899W        W66823  36.694  33.203  52.878
74900W        W66824  31.738  46.705  52.866
74901W        W66825  45.181   4.259  49.709
74902W        W66826  29.714  33.228  51.533
74903W        W66827  12.754  41.694  50.613
74904W        W66828  46.192  23.761  51.067
74905W        W66829   4.783  42.195  50.156
74906W        W66830  36.193  13.751  51.517
74907W        W66831   0.794   4.751  52.864
74908W        W66832  21.757   5.252  52.422
74909W        W66833  48.187   7.762  52.882
74910W        W66834   9.262   4.261  51.496
74911W        W66835  17.745  44.213  50.149
74912W        W66836  43.182  36.723  49.696
74913W        W66837  12.732  42.712  52.879
74914W        W66838  11.281   5.779  50.141
74915W        W66839  42.199  39.718  51.078
74916W        W66840  35.196   5.242  49.667
74917W        W66841   1.283  44.720  52.417
74918W        W66842  40.707  19.227  51.532
74919W        W66843   2.274  28.731  51.978
74920W        W66844  13.732  17.227  53.316
74921W        W66845  23.217   1.793  52.894
74922W        W66846  44.218  23.760  51.040
74923W        W66847  47.174  37.232  51.525
74924W        W66848  18.268  38.189  49.698
74925W        W66849  14.743  36.225  51.959
74926W        W66850   5.786  31.218  51.067
74927W        W66851  38.233  17.725  51.522
74928W        W66852   4.244   9.741  53.351
74929W        W66853  25.748  41.226  53.787
74930W        W66854  10.764  15.269  49.688
74931W        W66855  22.227  42.690  52.404
74932W        W66856   4.287  24.236  53.319
74933W        W66857  16.241  34.227  49.695
74934W        W66858   8.756   5.752  53.328
74935W        W66859   1.757  14.770  49.681
74936W        W66860  33.731  14.239  53.358
74937W        W66861   2.262  12.773  52.422
74938W        W66862  17.734   1.267  53.790
74939W        W66863  44.707  11.764  50.588
74940W        W66864  28.721  46.203  51.067
74941W        W66865   5.742  15.233  52.877
74942W        W66866  44.709  17.261  52.864
74943W        W66867  36.711   8.755  51.524
74944W        W66868  43.215  11.774  51.494
74945W        W66869  33.701   4.288  50.603
74946W        W66870  38.715  13.729  51.496
74947W        W66871   3.789  22.733  50.131
74948W        W66872  21.256   2.296  50.149
74949W        W66873  24.735  42.687  51.966
74950W        W66874  15.241  37.202  50.147
74951W        W66875  27.723  19.244  51.045
74952W        W66876   0.797  25.212  52.892
74953W        W66877   2.763  12.234  49.693
74954W        W66878  31.701  43.207  53.345
74955W        W66879  35.721  47.709  51.072
74956W        W66880  26.254  37.217  51.077
74957W        W66881  16.245   1.765  51.500
74958W        W66882  32.204  34.243  53.815
74959W        W66883  34.709  47.216  50.131
74960W        W66884  10.276  28.233  51.952
74961W        W66885  36.220  44.224  51.063
74962W        W66886   4.759  25.253  53.361
74963W        W66887  34.206  39.689  51.947
74964W        W66888   5.782   7.778  49.666
74965W        W66889  22.743   2.785  52.409
74966W        W66890  23.213  21.722  51.514
74967W        W66891  27.726  21.734  52.409
74968W        W66892  19.761  39.227  50.603
74969W        W66893  25.727  30.747  52.448
74970W        W66894  16.271  15.743  53.328
74971W        W66895  36.697  24.738  53.323
74972W        W66896  44.210  28.242  53.318
74973W        W66897  44.178  38.699  52.902
74974W        W66898  22.223  25.753  52.405
74975W        W66899  45.686  18.725  51.989
74976W        W66900  24.217  27.749  49.692
74977W        W66901  24.749  28.219  51.958
74978W        W66902   7.246  19.246  51.947
74979W        W66903  12.741  16.237  51.954
74980W        W66904  21.216   2.787  52.879
74981W        W66905  45.188  40.732  52.415
74982W        W66906  24.218  46.698  53.333
74983W        W66907  20.764  10.751  50.578
74984W        W66908  10.742  35.227  51.986
74985W        W66909   9.777  30.737  51.989
74986W        W66910  34.197  33.232  52.416
74987W        W66911   1.283  40.203  50.580
74988W        W66912   3.282  45.189  52.420
74989W        W66913   4.288  22.733  53.796
74990W        W66914  37.229   8.776  51.530
74991W        W66915  45.209  15.736  50.583
74992W        W66916  42.200  45.213  51.529
74993W        W66917  24.258  15.228  50.142
74994W        W66918  18.249  37.716  50.159
74995W        W66919   1.783  18.252  51.983
74996W        W66920  47.676  23.259  50.132
74997W        W66921  29.247  29.729  52.877
74998W        W66922  31.741  36.194  51.968
74999W        W66923   9.273   3.774  53.325
75000W        W66924  20.731  46.701  49.702
75001W        W66925   3.252  39.718  52.430
75002W        W66926  11.245  24.745  52.417
75003W        W66927  28.721  35.225  50.127
75004W        W66928   0.261  15.770  51.508
75005W        W66929  14.771  11.754  52.879
75006W        W66930  47.672  10.766  52.425
75007W        W66931  10.751  12.742  51.502
75008W        W66932   2.258  40.200  52.423
75009W        W66933  20.721  44.187  51.509
75010W        W66934  36.697   3.247  53.351
75011W        W66935  20.734  39.210  53.794
75012W        W66936  13.733   6.264  50.126
75013W        W66937   6.276  10.267  53.358
75014W        W66938  37.191  27.243  53.784
75015W        W66939  36.221  34.733  53.784
75016W        W66940   8.748  29.738  51.076
75017W        W66941  26.750   0.768  50.137
75018W        W66942   3.254  48.185  53.340
75019W        W66943  27.737   2.794  52.903
75020W        W66944  46.175  47.174  51.495
75021W        W66945   5.281  44.201  50.148
75022W        W66946   9.779  40.724  50.157
75023W        W66947  36.223  24.734  51.990
75024W        W66948   2.289  35.194  53.344
75025W        W66949   2.771  20.758  51.039
75026W        W66950   6.754  35.709  50.160
75027W        W66951  45.199  26.243  53.346
75028W        W66952   7.250  21.258  53.341
75029W        W66953  32.741  47.213  52.881
75030W        W66954  21.746  10.776  51.075
75031W        W66955  12.768  43.192  49.667
75032W        W66956   3.258  30.715  49.671
75033W        W66957  39.222  35.695  51.077
75034W        W66958  32.730  17.732  50.612
75035W        W66959  18.765  33.729  51.525
75036W        W66960  14.757  40.193  53.811
75037W        W66961  33.221  27.232  51.055
75038W        W66962  44.716  28.208  52.871
75039W        W66963  28.221  24.236  50.619
75040W        W66964   6.275   8.238  52.863
75041W        W66965  36.217  36.722  52.407
75042W        W66966  19.751  25.248  52.876
75043W        W66967  11.775  43.185  51.497
75044W        W66968   0.751  45.188  53.324
75045W        W66969  44.223   5.265  49.674
75046W        W66970  26.721  47.708  50.158
75047W        W66971  20.239  13.251  53.354
75048W        W66972   1.770  26.218  49.685
75049W        W66973  34.222  14.768  52.404
75050W        W66974  38.196   5.774  52.407
75051W        W66975  17.245  23.732  51.055
75052W        W66976   7.268  12.760  51.054
75053W        W66977  31.204  27.718  51.957
75054W        W66978  45.689   8.781  52.882
75055W        W66979  25.732  20.221  50.578
75056W        W66980  40.684  10.758  51.979
75057W        W66981  33.703  45.700  52.411
75058W        W66982  33.711  48.199  51.492
75059W        W66983  34.198  44.721  51.523
75060W        W66984   3.745  27.234  51.517
75061W        W66985  23.227  17.227  50.166
75062W        W66986  33.724  26.739  50.622
75063W        W66987  38.212  16.758  51.527
75064W        W66988  25.238  17.222  51.522
75065W        W66989   3.277  34.721  50.621
75066W        W66990  41.228  41.682  50.157
75067W        W66991  18.257  39.229  49.707
75068W        W66992   8.258  13.747  52.438
75069W        W66993  25.738  18.751  51.055
75070W        W66994  39.196  26.230  53.780
75071W        W66995  30.219  13.744  50.621
75072W        W66996  24.231  40.204  51.052
75073W        W66997  38.234   2.747  53.811
75074W        W66998  28.206  38.708  51.950
75075W        W66999  46.704  46.697  52.432
75076W        W67000  10.769  28.204  53.329
75077W        W67001  32.700   7.268  50.598
75078W        W67002  27.233  33.241  52.427
75079W        W67003  40.707  45.222  51.962
75080W        W67004  26.215  46.210  50.127
75081W        W67005  18.757  17.746  51.040
75082W        W67006  40.224   5.750  51.494
75083W        W67007   5.771  32.227  50.599
75084W        W67008  12.239   8.750  52.445
75085W        W67009  18.257  13.734  51.058
75086W        W67010  37.190  44.203  51.067
75087W        W67011  41.691  39.204  52.870
75088W        W67012  36.211   4.245  51.501
75089W        W67013   2.786  12.250  50.149
75090W        W67014  40.720   1.288  50.586
75091W        W67015  19.730  20.740  52.415
75092W        W67016  43.215  47.686  53.335
75093W        W67017  34.703  14.730  50.156
75094W        W67018  14.261  32.238  53.814
75095W        W67019  30.237   8.764  52.898
75096W        W67020  25.752  33.744  51.055
75097W        W67021  23.731  17.759  50.131
75098W        W67022   4.258  43.712  53.778
75099W        W67023  41.684   2.770  51.533
75100W        W67024  11.743  44.185  53.806
75101W        W67025  16.251  36.727  53.786
75102W        W67026  28.731  31.698  51.504
75103W        W67027  22.731  10.759  53.786
75104W        W67028  12.740  15.260  51.060
75105W        W67029  13.255  32.711  52.438
75106W        W67030  15.266  29.730  51.950
75107W        W67031   6.244  24.238  52.873
75108W        W67032  14.758  25.209  49.672
75109W        W67033  24.247  26.219  53.356
75110W        W67034  10.268   9.779  50.596
75111W        W67035  18.244  27.243  51.526
75112W        W67036  27.706   8.738  53.317
75113W        W67037   3.758   0.790  51.076
75114W        W67038  11.254  37.203  50.154
75115W        W67039   1.271   9.775  52.885
75116W        W67040  36.715  46.702  53.811
75117W        W67041  36.715  15.274  52.861
75118W        W67042  39.235  21.750  52.421
75119W        W67043   0.763  30.228  51.976
75120W        W67044   4.759   7.287  49.687
75121W        W67045  36.706  28.252  49.697
75122W        W67046  12.779  44.704  51.063
75123W        W67047  32.704  38.712  53.778
75124W        W67048  34.237   2.778  51.039
75125W        W67049  17.225  21.260  52.902
75126W        W67050  24.710  19.757  53.317
75127W        W67051  41.188  45.213  51.988
75128W        W67052  25.242  23.254  53.799
75129W        W67053   7.256  39.700  53.774
75130W        W67054  16.766  20.234  51.951
75131W        W67055  47.214  47.683  53.330
75132W        W67056  38.220  25.209  52.865
75133W        W67057  30.203  26.709  53.317
75134W        W67058  47.183  23.256  52.874
75135W        W67059  33.703   2.761  49.697
75136W        W67060   5.249  15.244  50.143
75137W        W67061  24.749  32.226  51.987
75138W        W67062  17.254  22.731  53.793
75139W        W67063  22.215  19.720  53.316
75140W        W67064  16.231  27.751  52.446
75141W        W67065   6.245   6.750  53.815
75142W        W67066   3.275   6.277  51.060
75143W        W67067  13.762   8.249  52.873
75144W        W67068   9.262  15.759  51.978
75145W        W67069  13.738  31.699  51.055
75146W        W67070  39.698  14.257  51.038
75147W        W67071  19.266  19.757  51.515
75148W        W67072  11.251   3.761  49.688
75149W        W67073   6.762  18.226  52.440
75150W        W67074  46.691  30.200  53.341
75151W        W67075  35.210  38.188  52.426
75152W        W67076   6.749  39.232  51.504
75153W        W67077   7.279   2.287  51.507
75154W        W67078  12.763   7.778  49.698
75155W        W67079  26.232  37.192  52.404
75156W        W67080  26.222  47.201  49.683
75157W        W67081   6.257  22.738  51.491
75158W        W67082  21.218  19.762  51.074
75159W        W67083  35.711  35.733  50.123
75160W        W67084  14.265   2.747  51.045
75161W        W67085  31.208  47.220  52.426
75162W        W67086  22.225  38.228  50.580
75163W        W67087  19.748   4.775  51.974
75164W        W67088   1.771  16.730  51.076
75165W        W67089  29.740   4.765  53.324
75166W        W67090   0.259  28.206  51.530
75167W        W67091   7.253  24.714  50.594
75168W        W67092  36.728  31.738  52.870
75169W        W67093   0.787   9.245  53.793
75170W        W67094   0.258   1.296  51.058
75171W        W67095  20.757  44.717  49.678
75172W        W67096   5.263  29.202  53.787
75173W        W67097  40.233  25.716  51.501
75174W        W67098   9.244  42.707  51.514
75175W        W67099  36.706  18.723  49.675
75176W        W67100  12.750  27.240  50.589
75177W        W67101  28.709  44.683  50.148
75178W        W67102   6.761  33.711  51.507
75179W        W67103  33.236  19.238  50.149
75180W        W67104  26.751   0.269  49.708
75181W        W67105  33.729  36.237  53.321
75182W        W67106  33.196  12.255  49.688
75183W        W67107  30.743  36.702  50.160
75184W        W67108  30.720   8.265  51.969
75185W        W67109  20.232  36.732  51.535
75186W        W67110   8.766   2.269  50.599
75187W        W67111  37.711  35.219  49.668
75188W        W67112  19.720  27.254  50.121
75189W        W67113  26.256  18.238  53.775
75190W        W67114  22.224  33.698  50.586
75191W        W67115  28.246  18.759  53.775
75192W        W67116  37.701  26.242  51.971
75193W        W67117   2.753  12.753  51.034
75194W        W67118   3.269  17.744  53.806
75195W        W67119  22.220   6.758  51.985
75196W        W67120   3.762   1.250  51.519
75197W        W67121  26.747  14.732  53.345
75198W        W67122  23.246  20.755  51.035
75199W        W67123  34.704   9.281  50.604
75200W        W67124  15.241   4.765  49.695
75201W        W67125  38.715  28.247  52.443
75202W        W67126  14.749   1.789  52.408
75203W        W67127  34.236  30.219  53.816
75204W        W67128  42.684   5.779  51.499
75205W        W67129  25.233  11.779  51.491
75206W        W67130   8.271  20.733  50.614
75207W        W67131  10.275  44.207  52.860
75208W        W67132  19.241  15.737  52.892
75209W        W67133  37.217  15.740  52.418
75210W        W67134  37.724  30.207  50.583
75211W        W67135  27.211   2.278  50.147
75212W        W67136  24.729  27.712  50.581
75213W        W67137  32.208  31.745  50.590
75214W        W67138  42.692  26.211  49.677
75215W        W67139  28.717  44.196  52.444
75216W        W67140  14.266  27.243  51.506
75217W        W67141  45.190  24.712  51.512
75218W        W67142  34.216  43.715  53.815
75219W        W67143   0.272   7.258  50.587
75220W        W67144  44.704  31.722  51.041
75221W        W67145  20.762  24.723  50.601
75222W        W67146   8.753  42.680  53.813
75223W        W67147  28.236   1.251  51.521
75224W        W67148  20.732  39.699  52.432
75225W        W67149  25.721  45.220  51.064
75226W        W67150   7.782  12.767  51.034
75227W        W67151   1.288  17.223  53.785
75228W        W67152  43.693  37.236  51.510
75229W        W67153   7.738  34.740  51.497
75230W        W67154  26.728  23.249  53.774
75231W        W67155  29.706  39.701  51.958
75232W        W67156  33.222  18.735  53.329
75233W        W67157  26.746  44.693  53.360
75234W        W67158  46.716  25.250  50.608
75235W        W67159  38.189  35.236  49.685
75236W        W67160  44.698  20.716  52.884
75237W        W67161  39.209  29.710  51.499
75238W        W67162  40.727   4.258  52.430
75239W        W67163  37.730  44.717  50.591
75240W        W67164  36.739  39.191  50.620
75241W        W67165  36.239   2.267  50.128
75242W        W67166  39.691  24.222  52.442
75243W        W67167   0.270  31.236  51.531
75244W        W67168  24.757   3.752  53.319
75245W        W67169  47.206  19.742  53.786
75246W        W67170   5.772  16.264  52.411
75247W        W67171  35.694  12.754  53.337
75248W        W67172   9.248   5.768  50.146
75249W        W67173  45.708  37.709  53.798
75250W        W67174  18.765  11.748  49.699
75251W        W67175   2.756  28.732  49.696
75252W        W67176  26.729  41.215  52.880
75253W        W67177  27.744   5.780  51.074
75254W        W67178  45.698  16.745  51.490
75255W        W67179  22.225   4.749  52.407
75256W        W67180  14.728  13.267  50.616
75257W        W67181  21.246   4.744  52.406
75258W        W67182  35.229  43.207  52.867
75259W        W67183  27.714  11.777  52.419
75260W        W67184  17.725  21.741  52.422
75261W        W67185   9.257   2.296  52.888
75262W        W67186  19.727  35.733  52.444
75263W        W67187  37.223  24.253  50.622
75264W        W67188  19.244   9.743  51.980
75265W        W67189  39.227  25.232  51.971
75266W        W67190  18.253  41.687  49.677
75267W        W67191  43.227  13.235  53.816
75268W        W67192   5.260  35.212  51.527
75269W        W67193  32.714  17.254  50.597
75270W        W67194   4.752   0.774  51.521
75271W        W67195  22.721  19.744  53.317
75272W        W67196  25.730  17.733  51.040
75273W        W67197  30.713  42.695  50.609
75274W        W67198   6.769  39.705  52.410
75275W        W67199  15.768  18.233  52.899
75276W        W67200  43.694  17.768  51.490
75277W        W67201  10.244  10.747  50.151
75278W        W67202   7.252   1.789  50.165
75279W        W67203  18.735  16.226  51.064
75280W        W67204  32.726  12.763  51.948
75281W        W67205  39.209  37.695  50.588
75282W        W67206  30.722   0.264  51.045
75283W        W67207  11.263  35.201  51.982
75284W        W67208   2.774   7.267  51.502
75285W        W67209  43.694  19.241  52.435
75286W        W67210  36.699  17.746  51.524
75287W        W67211  23.258  15.266  49.681
75288W        W67212  32.736  46.185  51.982
75289W        W67213  38.707   6.281  49.701
75290W        W67214  36.213  16.743  50.151
75291W        W67215  24.723  25.223  51.527
75292W        W67216  36.731  25.753  51.983
75293W        W67217  20.754   5.271  51.045
75294W        W67218  47.219  45.225  50.618
75295W        W67219  17.257  31.231  50.149
75296W        W67220   3.293   4.249  52.403
75297W        W67221  41.710   4.769  53.790
75298W        W67222  27.236   8.736  53.360
75299W        W67223  17.728  10.256  52.869
75300W        W67224  46.721   3.276  53.350
75301W        W67225  47.189  46.215  50.152
75302W        W67226  38.227  42.725  52.437
75303W        W67227  43.686  10.768  51.963
75304W        W67228  10.260  32.201  51.535
75305W        W67229   2.264  10.746  53.323
75306W        W67230   9.736   5.753  51.052
75307W        W67231  46.199  32.227  51.067
75308W        W67232   0.798   3.261  51.522
75309W        W67233  47.709   2.247  53.807
75310W        W67234  21.741  25.757  52.447
75311W        W67235  17.730  13.733  51.524
75312W        W67236  31.720   5.256  53.800
75313W        W67237  27.730  30.710  52.885
75314W        W67238  46.690  43.679  51.963
75315W        W67239  16.769   6.758  52.442
75316W        W67240  26.729  28.213  53.319
75317W        W67241  36.696   7.759  51.061
75318W        W67242  19.748   8.273  52.410
75319W        W67243  35.719  45.721  52.898
75320W        W67244   6.287  21.722  49.674
75321W        W67245  34.697   5.261  51.047
75322W        W67246  46.188  40.700  52.870
75323W        W67247  46.684  33.197  52.423
75324W        W67248   5.779  27.222  51.510
75325W        W67249  41.714  15.758  52.425
75326W        W67250  43.688  38.723  50.583
75327W        W67251   3.769   0.798  51.982
75328W        W67252  34.740   8.773  52.889
75329W        W67253  33.207   1.761  50.166
75330W        W67254   5.755  14.241  52.446
75331W        W67255  10.740  27.728  51.521
75332W        W67256  30.732  15.226  50.603
75333W        W67257  23.257  39.230  53.795
75334W        W67258   4.274  46.722  50.164
75335W        W67259  18.263   5.274  49.696
75336W        W67260  27.227  30.229  52.868
75337W        W67261  14.250  16.272  51.507
75338W        W67262  14.743  21.732  52.865
75339W        W67263  42.680  30.230  50.146
75340W        W67264  21.750  44.222  51.989
75341W        W67265  12.767  37.202  53.794
75342W        W67266  43.727   8.276  51.493
75343W        W67267  17.729  17.245  51.981
75344W        W67268   1.785  19.253  50.138
75345W        W67269  46.176  48.211  51.053
75346W        W67270  44.209  17.265  52.426
75347W        W67271  26.249  18.735  51.059
75348W        W67272  14.266  35.241  50.165
75349W        W67273  39.728   8.775  49.671
75350W        W67274  48.208  40.209  50.594
75351W        W67275  21.726   1.759  52.413
75352W        W67276   7.766  30.718  53.326
75353W        W67277  34.229  10.270  51.050
75354W        W67278  42.226  40.199  51.524
75355W        W67279  33.224  47.711  51.038
75356W        W67280  41.713  15.245  53.776
75357W        W67281  40.690   7.250  49.676
75358W        W67282  33.722  40.685  52.895
75359W        W67283   6.784  40.194  53.798
75360W        W67284   6.272  11.250  51.046
75361W        W67285  31.713   7.271  53.323
75362W        W67286   3.265  33.700  49.688
75363W        W67287  38.725  16.256  53.321
75364W        W67288  33.720  23.231  53.335
75365W        W67289  22.231  36.698  51.524
75366W        W67290  35.697  40.184  53.345
75367W        W67291  37.692  31.228  52.439
75368W        W67292  33.208  40.703  53.318
75369W        W67293   9.278  37.227  51.957
75370W        W67294  24.750  16.231  51.034
75371W        W67295  37.202  19.759  51.982
75372W        W67296  17.255  28.718  51.986
75373W        W67297  10.774  28.209  49.670
75374W        W67298  25.727  44.681  51.950
75375W        W67299  24.746  12.773  53.318
75376W        W67300  10.234  10.252  51.064
75377W        W67301  36.705   0.785  49.693
75378W        W67302   2.749  17.250  53.795
75379W        W67303  48.205  42.722  49.702
75380W        W67304  40.184  26.251  50.596
75381W        W67305  39.692  36.733  50.147
75382W        W67306  14.248  33.734  49.701
75383W        W67307   1.268  28.230  52.892
75384W        W67308   5.282  29.207  52.446
75385W        W67309  38.199  33.697  53.355
75386W        W67310  15.263  37.231  53.351
75387W        W67311   9.739  21.725  51.501
75388W        W67312  42.199  14.763  52.875
75389W        W67313  12.735  43.228  53.781
75390W        W67314  36.710  10.254  53.811
75391W        W67315  26.233  38.207  50.143
75392W        W67316   1.791   5.258  50.147
75393W        W67317   1.284  19.248  51.046
75394W        W67318  41.206  26.214  53.337
75395W        W67319  42.713  34.207  51.969
75396W        W67320  42.705  37.224  49.707
75397W        W67321  15.229  42.726  51.531
75398W        W67322  21.244  11.281  51.951
75399W        W67323   3.264  24.710  51.987
75400W        W67324  32.201   6.251  50.614
75401W        W67325   5.252  44.683  49.687
75402W        W67326  42.712   4.281  53.803
75403W        W67327  20.741  12.742  51.071
75404W        W67328  31.219  17.243  53.807
75405W        W67329  39.700  29.745  51.989
75406W        W67330   6.751  21.748  53.360
75407W        W67331  45.176  11.270  50.579
75408W        W67332  31.241  44.207  49.671
75409W        W67333  17.754  29.748  52.893
75410W        W67334  29.243  10.240  49.710
75411W        W67335  46.202  15.736  52.900
75412W        W67336  25.242   4.773  51.973
75413W        W67337  37.215   6.242  50.590
75414W        W67338  44.181  26.746  51.959
75415W        W67339   7.782  42.226  51.046
75416W        W67340  18.245  17.729  52.447
75417W        W67341  21.250  14.230  52.430
75418W        W67342  31.698  16.729  53.786
75419W        W67343   4.275  18.760  50.585
75420W        W67344   4.261  13.758  51.955
75421W        W67345   1.759   0.295  51.961
75422W        W67346   5.246  32.220  49.679
75423W        W67347  43.204   8.279  51.493
75424W        W67348  21.221  37.235  51.499
75425W        W67349   8.265  34.209  52.437
75426W        W67350  38.720  23.730  53.774
75427W        W67351  18.248  20.229  53.773
75428W        W67352  44.715  12.747  52.434
75429W        W67353  43.696  45.187  50.147
75430W        W67354  38.218  43.694  49.696
75431W        W67355  44.682  37.712  50.127
75432W        W67356  16.725  20.250  53.790
75433W        W67357  14.736  38.189  52.895
75434W        W67358   7.250  27.717  51.953
75435W        W67359  22.230  39.218  50.136
75436W        W67360  38.192  15.260  53.332
75437W        W67361  12.740  36.716  52.415
75438W        W67362  29.716  42.216  50.603
75439W        W67363  16.238  35.729  50.607
75440W        W67364  45.685  38.705  49.672
75441W        W67365  26.708  10.276  51.051
75442W        W67366  20.733  32.214  51.041
75443W        W67367  21.743  28.718  51.513
75444W        W67368  41.201   4.247  52.881
75445W        W67369  33.743  31.702  52.414
75446W        W67370  25.229   2.754  53.316
75447W        W67371  28.215   8.762  50.165
75448W        W67372  46.703  36.704  50.160
75449W        W67373   5.254  38.197  51.505
75450W        W67374   0.773  42.225  49.669
75451W        W67375  12.730  42.185  53.778
75452W        W67376   1.257  44.709  51.955
75453W        W67377  12.768  11.743  52.881
75454W        W67378  27.226   2.785  53.790
75455W        W67379  35.725  35.737  52.427
75456W        W67380  10.259  29.748  53.787
75457W        W67381   5.247  14.266  51.961
75458W        W67382  29.709  15.242  51.960
75459W        W67383  35.723   3.287  53.805
75460W        W67384  14.244   2.281  50.614
75461W        W67385  12.766  11.238  51.530
75462W        W67386  48.185  15.266  49.669
75463W        W67387  47.216  46.204  50.614
75464W        W67388   5.774  15.267  51.526
75465W        W67389  19.733  32.219  51.039
75466W        W67390  11.268  13.246  51.972
75467W        W67391  20.754  33.231  51.512
75468W        W67392  22.257  12.256  52.447
75469W        W67393  17.763  39.212  52.871
75470W        W67394  30.714  41.208  51.041
75471W        W67395  26.706  17.738  53.794
75472W        W67396  39.220  33.709  51.978
75473W        W67397  36.209   2.259  52.884
75474W        W67398  28.746  21.739  52.446
75475W        W67399  21.760  34.243  53.324
75476W        W67400  31.699  19.741  53.780
75477W        W67401  32.721  38.721  53.336
75478W        W67402   6.786  32.696  53.319
75479W        W67403  32.722  41.184  51.076
75480W        W67404  17.233  17.232  49.700
75481W        W67405  23.712  31.746  52.864
75482W        W67406  16.751  22.734  50.145
75483W        W67407  31.200  19.730  51.049
75484W        W67408  30.707   5.288  52.406
75485W        W67409  20.245   0.771  49.687
75486W        W67410  25.743   1.291  51.491
75487W        W67411  26.212   0.270  52.423
75488W        W67412  23.237  23.218  53.356
75489W        W67413  46.195  26.221  52.434
75490W        W67414  11.751  13.739  53.350
75491W        W67415  46.184  32.741  51.036
75492W        W67416  44.688  31.713  53.319
75493W        W67417   6.753  41.204  49.668
75494W        W67418  22.258   8.274  50.156
75495W        W67419  30.236  30.728  50.581
75496W        W67420  25.718  24.731  49.704
75497W        W67421  10.266  42.680  52.874
75498W        W67422  11.256  11.274  49.690
75499W        W67423  29.204  20.238  53.775
75500W        W67424  32.735   0.252  50.161
75501W        W67425  38.711  20.249  53.359
75502W        W67426  47.184  42.691  50.603
75503W        W67427  24.754  40.700  52.897
75504W        W67428  29.719  18.751  53.323
75505W        W67429   8.774  36.230  53.778
75506W        W67430  15.242  17.724  52.405
75507W        W67431  35.708  36.202  50.612
75508W        W67432  39.204  21.761  51.066
75509W        W67433  45.221  23.727  50.142
75510W        W67434  17.225  19.735  50.142
75511W        W67435  33.701  41.186  52.867
75512W        W67436  14.732  13.732  53.332
75513W        W67437  37.719  31.208  49.704
75514W        W67438  24.745   7.746  53.808
75515W        W67439  42.206  10.234  49.683
75516W        W67440   0.768  27.715  53.782
75517W        W67441  28.751  27.209  51.068
75518W        W67442  19.243  42.192  53.792
75519W        W67443   7.250  46.685  51.965
75520W        W67444  31.725  36.690  50.611
75521W        W67445  38.187  26.724  50.125
75522W        W67446  10.778   5.261  53.811
75523W        W67447  12.751  32.221  49.682
75524W        W67448   7.274  29.224  51.067
75525W        W67449  19.738   8.745  52.441
75526W        W67450  46.201  17.256  51.986
75527W        W67451  47.675  10.756  53.352
75528W        W67452  32.228  12.237  53.815
75529W        W67453  23.716  24.221  52.444
75530W        W67454  27.738  48.195  50.121
75531W        W67455  19.751  33.741  50.155
75532W        W67456  21.240  22.228  51.505
75533W        W67457   1.282   3.747  51.496
75534W        W67458   9.255  23.754  52.863
75535W        W67459  16.759   2.292  50.164
75536W        W67460  12.246   3.287  52.885
75537W        W67461  25.227  20.245  51.949
75538W        W67462  30.724  37.690  51.516
75539W        W67463  33.210  11.253  52.406
75540W        W67464   5.254  11.267  51.513
75541W        W67465  29.241  39.211  49.690
75542W        W67466   7.242  32.744  49.701
75543W        W67467   6.786   2.764  53.321
75544W        W67468  38.698   6.780  51.043
75545W        W67469  23.751  21.750  51.519
75546W        W67470  31.726  15.753  52.868
75547W        W67471  38.227  23.253  52.417
75548W        W67472  20.756  29.224  51.058
75549W        W67473  10.766   8.753  49.671
75550W        W67474  41.219  17.754  51.990
75551W        W67475  34.694   6.777  51.067
75552W        W67476   3.270  31.248  51.964
75553W        W67477  32.238   9.271  51.056
75554W        W67478  15.737  33.743  53.322
75555W        W67479  11.273  29.721  52.862
75556W        W67480  10.267  38.702  52.878
75557W        W67481  12.778  30.226  52.895
75558W        W67482   4.264  47.205  52.421
75559W        W67483  43.221  19.747  51.525
75560W        W67484  42.200  27.744  53.796
75561W        W67485   7.244  12.259  51.981
75562W        W67486  11.241   0.254  49.708
75563W        W67487  16.738  34.721  51.503
75564W        W67488   1.759  41.199  50.590
75565W        W67489  40.731  35.702  50.145
75566W        W67490  25.721  44.179  52.404
75567W        W67491   5.780  18.729  52.432
75568W        W67492  32.700  18.730  51.502
75569W        W67493  13.277   2.774  53.336
75570W        W67494  16.243  30.201  53.327
75571W        W67495   6.757  40.230  49.688
75572W        W67496  13.730  28.727  51.522
75573W        W67497  16.234  16.741  50.615
75574W        W67498  23.744  45.193  51.511
75575W        W67499   0.758  15.746  53.325
75576W        W67500  13.758   3.756  51.516
75577W        W67501  26.712  30.219  53.776
75578W        W67502  17.753  12.242  51.517
75579W        W67503  14.775  32.238  49.697
75580W        W67504  41.689  31.733  53.359
75581W        W67505   6.244  29.720  52.899
75582W        W67506  30.749   8.736  52.902
75583W        W67507  31.720  13.775  53.780
75584W        W67508  12.252  15.249  53.786
75585W        W67509   8.241  25.245  51.074
75586W        W67510  11.232  46.715  52.881
75587W        W67511   6.768   2.795  52.894
75588W        W67512   8.763   2.287  52.889
75589W        W67513   7.759   2.265  53.328
75590W        W67514   0.273  31.221  50.140
75591W        W67515  20.722   7.266  49.671
75592W        W67516  24.224  23.757  52.415
75593W        W67517  14.250  29.734  52.414
75594W        W67518  34.712  33.215  53.805
75595W        W67519  15.752   7.277  52.432
75596W        W67520   4.277  30.719  52.874
75597W        W67521  36.736  35.703  50.135
75598W        W67522  15.740  27.240  52.423
75599W        W67523  34.710  39.205  53.799
75600W        W67524  24.215   3.775  51.533
75601W        W67525  18.744   1.280  51.503
75602W        W67526  11.773   1.267  52.890
75603W        W67527   6.255  25.727  51.048
75604W        W67528  47.698   1.255  49.676
75605W        W67529  33.225  46.212  52.883
75606W        W67530   1.291  15.268  50.134
75607W        W67531  46.220  35.198  50.142
75608W        W67532  31.243   6.270  50.134
75609W        W67533   7.265  40.693  51.064
75610W        W67534  41.197  14.230  52.415
75611W        W67535   2.290  39.715  51.972
75612W        W67536  37.709  22.230  52.876
75613W        W67537  34.738  17.237  51.518
75614W        W67538  13.261  21.241  51.049
75615W        W67539  34.712   3.256  52.407
75616W        W67540   0.271  31.741  52.884
75617W        W67541  41.704   5.256  50.579
75618W        W67542  21.745  29.707  53.361
75619W        W67543  45.686  37.719  49.680
75620W        W67544  34.238  37.222  53.317
75621W        W67545  47.206   3.761  51.076
75622W        W67546  31.240  45.706  51.530
75623W        W67547  25.226   2.249  53.781
75624W        W67548  36.721  37.732  51.508
75625W        W67549  15.268  36.735  52.429
75626W        W67550  47.689  23.744  52.886
75627W        W67551  40.720   0.292  50.161
75628W        W67552  28.216  40.717  50.612
75629W        W67553  11.739  43.192  53.341
75630W        W67554  48.220  42.693  50.135
75631W        W67555  39.198   2.764  52.405
75632W        W67556   0.259  23.725  51.077
75633W        W67557  40.712  47.201  50.597
75634W        W67558  39.704   1.768  50.149
75635W        W67559  15.245  22.730  53.817
75636W        W67560  21.720  23.233  52.441
75637W        W67561  10.243   7.740  52.900
75638W        W67562  38.214  16.228  50.134
75639W        W67563  18.252  43.708  51.068
75640W        W67564  18.722  44.210  49.679
75641W        W67565  34.214  45.211  53.361
75642W        W67566  46.189  18.768  53.354
75643W        W67567  14.233  22.235  50.141
75644W        W67568   4.264  27.739  53.816
75645W        W67569  15.251  27.233  53.352
75646W        W67570  19.233  12.231  53.798
75647W        W67571  30.708  30.207  52.406
75648W        W67572   6.268  38.231  50.125
75649W        W67573  34.726  31.235  50.607
75650W        W67574  41.690  30.212  50.592
75651W        W67575  35.216   5.266  51.074
75652W        W67576  36.728  17.246  50.596
75653W        W67577  19.231  31.225  49.692
75654W        W67578  47.714   3.758  52.898
75655W        W67579  40.192  39.188  52.440
75656W        W67580  30.730  23.726  50.125
75657W        W67581  40.224  36.697  50.159
75658W        W67582  21.261   1.761  49.692
75659W        W67583   9.750  45.196  49.671
75660W        W67584  10.746  22.221  53.346
75661W        W67585  30.737  29.218  51.982
75662W        W67586   1.791  43.701  51.509
75663W        W67587  33.233  46.207  52.435
75664W        W67588   0.793   2.756  52.412
75665W        W67589  24.233  15.732  51.983
75666W        W67590  13.247   1.770  52.415
75667W        W67591  32.734  37.238  52.405
75668W        W67592  43.214  22.752  50.131
75669W        W67593  35.206  24.241  53.813
75670W        W67594   3.745  13.232  50.121
75671W        W67595   7.739  44.709  52.886
75672W        W67596  14.735  41.726  51.953
75673W        W67597  39.225  26.737  52.871
75674W        W67598  40.190  10.735  53.814
75675W        W67599  15.248  34.741  53.791
75676W        W67600  25.756  24.746  51.964
75677W        W67601   9.764   6.265  50.132
75678W        W67602  23.741  22.723  51.510
75679W        W67603  42.702  15.750  49.684
75680W        W67604  32.201  35.711  50.129
75681W        W67605  24.746  33.207  50.122
75682W        W67606  42.727   0.784  52.423
75683W        W67607  31.704  32.741  53.331
75684W        W67608  33.735   5.262  52.406
75685W        W67609   2.283  20.258  51.059
75686W        W67610  35.241   3.769  49.691
75687W        W67611  35.705  47.696  53.328
75688W        W67612   4.265  40.203  49.667
75689W        W67613  16.765  23.230  52.861
75690W        W67614  46.222  22.241  52.447
75691W        W67615  22.230  40.720  51.048
75692W        W67616   4.283  45.195  53.776
75693W        W67617  10.760  43.721  50.594
75694W        W67618  17.228   5.264  51.035
75695W        W67619   7.278  13.763  51.062
75696W        W67620  26.244  13.231  50.133
75697W        W67621  14.264  21.231  50.601
75698W        W67622   0.767  46.188  51.987
75699W        W67623  39.703  43.213  50.608
75700W        W67624  18.768  41.709  52.868
75701W        W67625  12.776  34.727  50.600
75702W        W67626  35.234  26.217  50.166
75703W        W67627   6.754  42.217  53.782
75704W        W67628  23.714  43.680  51.964
75705W        W67629  11.275  35.741  52.878
75706W        W67630   1.271   5.742  53.787
75707W        W67631  11.738   7.281  50.615
75708W        W67632  15.243  31.737  49.699
75709W        W67633  13.766  28.727  51.972
75710W        W67634  12.750  28.724  51.528
75711W        W67635  15.227  28.246  50.153
75712W        W67636  25.709  37.708  50.608
75713W        W67637  14.732  17.725  49.664
75714W        W67638  46.705   8.284  52.891
75715W        W67639  44.204  13.255  53.331
75716W        W67640  10.261  15.265  51.524
75717W        W67641  46.712  48.198  49.677
75718W        W67642  43.684  30.221  50.155
75719W        W67643  48.211   7.243  51.497
75720W        W67644  28.231  23.754  53.340
75721W        W67645  16.727   2.288  51.949
75722W        W67646  14.750  13.758  50.618
75723W        W67647  14.247  36.212  51.955
75724W        W67648  17.263   5.763  53.356
75725W        W67649  30.232   2.256  52.903
75726W        W67650  16.236  13.256  52.445
75727W        W67651   4.752   7.269  51.046
75728W        W67652   5.249  42.219  50.613
75729W        W67653  12.769  33.734  52.432
75730W        W67654  19.241   7.750  52.413
75731W        W67655  12.747   8.271  53.353
75732W        W67656  29.241  31.715  53.798
75733W        W67657   0.284  35.221  52.865
75734W        W67658   9.777  26.732  50.125
75735W        W67659  35.232  20.218  53.794
75736W        W67660  41.213   6.743  52.897
75737W        W67661  31.238  30.745  52.404
75738W        W67662  34.734  39.189  51.958
75739W        W67663   7.244   5.756  49.675
75740W        W67664  14.729  10.773  50.584
75741W        W67665  24.730  37.719  49.692
75742W        W67666  24.245  35.694  49.687
75743W        W67667  35.711  39.710  50.132
75744W        W67668   1.773  30.727  50.138
75745W        W67669  36.699  10.774  53.347
75746W        W67670  25.748  44.690  49.689
75747W        W67671  22.731  24.238  50.580
75748W        W67672  31.242  22.242  50.125
75749W        W67673   7.288   5.273  53.801
75750W        W67674   7.252  12.238  51.056
75751W        W67675  34.231  46.678  52.432
75752W        W67676  45.213  28.706  52.415
75753W        W67677  20.251  26.723  52.888
75754W        W67678  31.744   9.266  53.775
75755W        W67679   7.252  19.246  50.585
75756W        W67680   8.769  38.721  49.702
75757W        W67681  34.203  15.749  49.700
75758W        W67682  32.242  11.760  51.035
75759W        W67683  46.219  25.211  50.581
75760W        W67684  14.743  11.235  51.955
75761W        W67685  23.212   8.246  51.498
75762W        W67686   5.274  47.203  52.441
75763W        W67687  29.226  41.232  51.992
75764W        W67688  11.734  41.219  53.802
75765W        W67689  45.689  30.245  53.326
75766W        W67690   0.259  27.720  52.432
75767W        W67691  10.742   3.257  52.406
75768W        W67692   8.246  34.722  52.419
75769W        W67693  45.708  22.740  53.322
75770W        W67694  17.741  17.249  49.677
75771W        W67695  39.693  18.756  51.984
75772W        W67696  41.209  13.729  49.687
75773W        W67697  38.712   6.287  52.408
75774W        W67698  13.768  25.250  50.591
75775W        W67699   1.766  31.743  53.789
75776W        W67700  41.224   4.747  53.814
75777W        W67701  41.221  24.222  51.949
75778W        W67702   7.749  41.208  50.123
75779W        W67703  30.230  11.738  50.617
75780W        W67704  46.677  45.724  49.673
75781W        W67705   3.274  33.244  51.535
75782W        W67706  35.223  44.214  53.353
75783W        W67707  44.181   0.774  49.675
75784W        W67708  42.183  28.208  50.578
75785W        W67709  43.704  22.738  53.773
75786W        W67710  22.259  42.705  53.348
75787W        W67711  12.753  42.698  53.361
75788W        W67712  13.761  27.242  51.948
75789W        W67713  28.714  38.226  51.037
75790W        W67714  34.240  34.711  49.678
75791W        W67715  34.236   1.761  52.420
75792W        W67716   1.267  27.751  52.415
75793W        W67717  14.274  10.778  52.883
75794W        W67718   3.280  25.228  49.670
75795W        W67719   9.248  32.718  49.691
75796W        W67720  27.240  23.223  53.316
75797W        W67721   7.270  18.257  53.777
75798W        W67722   3.259  39.705  49.675
75799W        W67723  38.710  14.252  49.667
75800W        W67724  21.727  45.211  51.501
75801W        W67725  14.247  11.774  51.046
75802W        W67726   7.254   5.768  52.413
75803W        W67727  13.254  41.724  53.319
75804W        W67728  48.219  38.189  50.620
75805W        W67729  35.193   2.295  50.609
75806W        W67730  41.685  40.219  51.529
75807W        W67731  42.719   4.747  50.124
75808W        W67732  26.723   7.261  49.676
75809W        W67733  22.224  26.707  52.447
75810W        W67734  14.759   6.781  53.328
75811W        W67735  20.245  43.202  53.339
75812W        W67736  45.221  13.230  52.419
75813W        W67737  18.229  34.194  53.799
75814W        W67738  35.221  23.218  52.901
75815W        W67739  12.753  17.734  50.604
75816W        W67740   1.747   5.777  53.330
75817W        W67741  34.208   0.271  51.074
75818W        W67742  13.242  24.751  52.865
75819W        W67743  15.734  34.227  49.692
75820W        W67744  22.758  29.701  52.426
75821W        W67745  32.237  30.238  50.592
75822W        W67746  38.692  30.246  53.775
75823W        W67747  44.216   4.258  51.527
75824W        W67748   9.781  13.270  53.325
75825W        W67749  20.217   2.282  52.434
75826W        W67750   6.271  12.769  50.142
75827W        W67751  21.729  12.759  51.060
75828W        W67752  22.735  38.197  50.164
75829W        W67753   6.251  48.207  53.330
75830W        W67754  26.747   5.760  49.688
75831W        W67755  43.192  43.228  51.527
75832W        W67756  13.265  29.738  50.150
75833W        W67757   2.755   0.756  50.599
75834W        W67758  38.709  41.193  50.594
75835W        W67759   8.272  20.721  53.358
75836W        W67760  39.231  10.262  49.707
75837W        W67761  35.711  23.242  52.904
75838W        W67762   0.280  26.737  51.958
75839W        W67763  39.734  23.750  53.318
75840W        W67764  42.222  24.210  50.134
75841W        W67765   0.272  46.708  53.778
75842W        W67766  27.224  17.757  52.403
75843W        W67767   8.768  39.709  49.677
75844W        W67768  12.270  46.675  53.331
75845W        W67769  42.722  10.762  51.527
75846W        W67770  28.204   0.793  52.869
75847W        W67771  25.244   2.767  51.056
75848W        W67772  22.255  46.194  51.989
75849W        W67773  21.224  12.748  50.124
75850W        W67774  16.753   6.265  52.404
75851W        W67775  27.223  44.699  52.411
75852W        W67776   3.283  29.223  49.672
75853W        W67777  11.233   6.256  50.614
75854W        W67778  38.235  44.209  51.055
75855W        W67779  36.694  27.215  51.961
75856W        W67780  25.232   1.274  52.414
75857W        W67781  17.769   1.297  51.950
75858W        W67782  45.705   9.770  51.984
75859W        W67783  19.719  27.722  50.604
75860W        W67784  29.738  41.214  49.707
75861W        W67785   1.787   8.763  49.701
75862W        W67786  31.206  23.754  52.411
75863W        W67787  44.205   3.778  52.867
75864W        W67788   4.784   2.287  52.407
75865W        W67789   5.276  28.718  53.333
75866W        W67790  43.691  21.223  51.041
75867W        W67791  42.210  30.735  53.317
75868W        W67792  16.770  12.759  51.076
75869W        W67793  30.237  19.242  53.800
75870W        W67794  45.718  37.722  52.865
75871W        W67795   4.752   1.282  51.075
75872W        W67796  44.226  41.196  51.046
75873W        W67797  29.735  17.224  51.515
75874W        W67798  30.222  39.686  50.139
75875W        W67799   4.752   6.244  53.347
75876W        W67800   8.267  42.722  49.679
75877W        W67801  39.708  14.263  52.867
75878W        W67802  32.205  39.231  52.890
75879W        W67803  47.711  15.743  53.773
75880W        W67804  13.243  21.739  50.612
75881W        W67805  48.205   7.762  51.071
75882W        W67806  11.777  11.758  51.966
75883W        W67807  43.181  34.227  53.815
75884W        W67808   4.788  16.758  52.894
75885W        W67809  27.218  21.227  53.320
75886W        W67810  26.724  30.201  53.316
75887W        W67811  36.215  41.216  51.057
75888W        W67812   9.741  35.706  53.352
75889W        W67813  33.243  19.262  51.056
75890W        W67814   7.749  28.235  50.579
75891W        W67815   1.267   2.266  51.989
75892W        W67816  27.243   8.278  51.972
75893W        W67817  27.212   1.758  49.700
75894W        W67818  36.207  47.673  52.442
75895W        W67819  40.200   3.261  53.327
75896W        W67820  36.714  23.235  51.535
75897W        W67821  18.734  35.694  52.870
75898W        W67822  38.711  13.745  51.040
75899W        W67823  40.217  11.256  53.810
75900W        W67824  36.196  18.237  51.972
75901W        W67825   9.744  33.731  51.534
75902W        W67826  18.759  16.745  52.871
75903W        W67827  36.231  37.712  49.688
75904W        W67828  20.731  34.718  51.061
75905W        W67829  26.231   4.756  50.616
75906W        W67830  40.702  15.748  52.430
75907W        W67831  31.707  20.266  53.806
75908W        W67832  43.194  32.727  51.978
75909W        W67833   7.259  18.739  51.071
75910W        W67834  21.730   4.265  51.514
75911W        W67835  14.727  30.722  49.674
75912W        W67836  27.223  27.711  50.577
75913W        W67837   4.246  30.740  50.140
75914W        W67838  12.734  11.746  53.334
75915W        W67839   9.776  39.732  52.897
75916W        W67840   9.763  16.725  50.135
75917W        W67841  33.726  32.212  52.873
75918W        W67842  26.211  12.258  50.600
75919W        W67843  46.187   2.783  50.605
75920W        W67844  15.742  29.212  53.793
75921W        W67845  13.756  29.708  52.445
75922W        W67846  30.239   0.793  49.691
75923W        W67847   0.271   1.796  53.338
75924W        W67848  47.175  44.226  51.034
75925W        W67849  32.710  16.260  51.498
75926W        W67850  35.732   3.281  52.890
75927W        W67851  11.742   2.772  50.611
75928W        W67852   0.262   3.268  53.796
75929W        W67853  35.203  33.703  52.445
75930W        W67854  10.768  20.751  49.691
75931W        W67855  42.697  14.733  50.620
75932W        W67856  31.244  27.214  51.520
75933W        W67857   2.789  20.258  50.132
75934W        W67858  11.762   3.269  52.866
75935W        W67859  39.219  33.198  51.041
75936W        W67860   7.263  23.742  51.973
75937W        W67861  44.180  25.743  50.610
75938W        W67862  14.774  26.708  53.342
75939W        W67863  11.747  29.249  53.358
75940W        W67864  29.224  34.223  53.789
75941W        W67865  43.192  35.697  49.705
75942W        W67866  14.251  23.733  51.958
75943W        W67867  42.693   9.755  52.430
75944W        W67868  24.741  32.707  53.777
75945W        W67869  47.721  46.204  51.520
75946W        W67870  13.774  33.729  51.060
75947W        W67871  34.231  27.725  51.505
75948W        W67872   7.285  43.698  50.590
75949W        W67873  45.195   2.251  52.424
75950W        W67874  28.248   2.760  50.130
75951W        W67875  13.747  36.199  51.512
75952W        W67876  19.730  33.237  49.669
75953W        W67877  38.703  25.247  50.153
75954W        W67878  44.686  45.177  53.344
75955W        W67879  13.742   3.264  49.672
75956W        W67880  38.705  44.186  50.589
75957W        W67881  22.744   6.760  51.063
75958W        W67882  20.745  22.738  50.588
75959W        W67883   0.272  18.256  51.076
75960W        W67884   0.296   1.272  53.345
75961W        W67885  32.714  40.187  50.126
75962W        W67886   2.287  42.729  51.526
75963W        W67887  37.723  34.204  53.790
75964W        W67888  11.275   6.748  51.064
75965W        W67889  19.762   8.749  53.787
75966W        W67890   3.777  35.708  49.678
75967W        W67891  21.263  28.734  53.342
75968W        W67892  47.701  19.752  51.492
75969W        W67893  12.273  24.258  49.698
75970W        W67894  30.225  40.685  53.341
75971W        W67895  32.215  34.201  52.891
75972W        W67896  29.208   8.781  50.599
75973W        W67897   0.270  46.176  51.034
75974W        W67898  35.237   0.289  52.421
75975W        W67899  26.222  48.188  53.811
75976W        W67900  48.219  45.179  51.522
75977W        W67901  34.199  46.200  53.317
75978W        W67902  45.181   0.777  49.680
75979W        W67903  15.231  31.737  51.963
75980W        W67904  14.734  27.218  51.040
75981W        W67905  29.736  29.224  50.605
75982W        W67906  22.213  24.734  51.059
75983W        W67907  19.236   0.282  53.813
75984W        W67908   0.756  37.691  51.991
75985W        W67909  36.721  11.250  53.794
75986W        W67910  17.721  19.720  53.803
75987W        W67911  25.751  30.247  51.045
75988W        W67912  14.774  27.222  49.664
75989W        W67913  11.241  18.748  51.533
75990W        W67914  43.684   0.250  51.058
75991W        W67915  33.727  26.209  53.318
75992W        W67916  20.749  41.703  51.072
75993W        W67917  17.254  28.242  52.431
75994W        W67918  44.211  46.695  51.518
75995W        W67919  47.709  37.728  51.053
75996W        W67920   2.257  29.702  52.877
75997W        W67921   5.265  34.702  50.604
75998W        W67922  15.724  19.223  52.423
75999W        W67923   0.266   1.776  52.406
76000W        W67924   9.279  26.249  51.956
76001W        W67925  36.734  25.256  49.697
76002W        W67926  21.747   2.783  53.790
76003W        W67927  25.750  14.230  53.347
76004W        W67928  29.230  42.184  53.323
76005W        W67929  13.231  20.737  53.795
76006W        W67930  22.253  20.737  52.860
76007W        W67931   7.247  12.240  53.816
76008W        W67932  36.719  22.222  52.867
76009W        W67933  30.230  38.694  52.877
76010W        W67934  28.219  27.248  50.123
76011W        W67935   1.755  29.244  51.980
76012W        W67936  26.711  40.204  52.432
76013W        W67937   0.752  16.248  53.813
76014W        W67938   3.768  43.203  51.522
76015W        W67939  25.734  17.266  51.979
76016W        W67940   8.740   0.770  53.810
76017W        W67941   9.245  23.760  51.047
76018W        W67942  23.713  14.240  49.678
76019W        W67943  33.245  13.247  50.591
76020W        W67944  31.200  24.224  51.068
76021W        W67945  17.227  11.247  51.044
76022W        W67946  41.687  13.735  50.148
76023W        W67947  10.749  19.752  51.524
76024W        W67948   9.762  19.740  52.899
76025W        W67949  43.195  21.221  53.772
76026W        W67950  46.684  35.738  51.987
76027W        W67951  23.213  22.256  51.523
76028W        W67952  19.247  12.775  50.605
76029W        W67953  25.740  30.244  51.527
76030W        W67954  24.713  40.203  53.802
76031W        W67955  37.208  48.209  49.689
76032W        W67956  13.730  33.201  51.961
76033W        W67957   2.279  33.713  52.409
76034W        W67958  15.755  11.735  49.681
76035W        W67959  45.218  43.714  50.589
76036W        W67960  23.737  20.718  51.507
76037W        W67961   2.261  31.203  51.051
76038W        W67962  47.719  16.729  51.953
76039W        W67963  26.716  14.250  51.073
76040W        W67964  29.246  24.756  51.071
76041W        W67965  21.236  30.235  51.521
76042W        W67966  15.730  18.759  51.961
76043W        W67967  47.175  48.201  50.151
76044W        W67968  46.205  33.720  53.802
76045W        W67969  36.222  37.720  53.795
76046W        W67970   8.751  27.246  53.325
76047W        W67971  23.227  40.233  51.983
76048W        W67972  33.213  19.748  52.435
76049W        W67973   4.245  38.236  51.067
76050W        W67974  20.226  31.730  50.614
76051W        W67975  40.203  35.221  51.497
76052W        W67976  32.232   8.274  49.680
76053W        W67977  46.204   3.274  51.971
76054W        W67978  31.203  11.761  50.135
76055W        W67979   3.764  45.220  51.511
76056W        W67980  44.220  33.232  51.045
76057W        W67981  30.724  18.750  53.779
76058W        W67982   4.748  26.208  51.985
76059W        W67983  38.225  31.202  51.067
76060W        W67984   2.764  36.227  50.124
76061W        W67985  48.195   0.257  50.135
76062W        W67986   3.248  44.184  51.041
76063W        W67987  38.725  41.711  51.981
76064W        W67988  30.203   1.275  52.890
76065W        W67989  20.217  13.266  52.864
76066W        W67990  32.728  45.221  53.773
76067W        W67991  11.754   3.781  52.439
76068W        W67992   1.764  13.239  51.047
76069W        W67993  32.220  45.697  52.868
76070W        W67994  28.230   2.291  53.811
76071W        W67995   7.238  20.260  50.134
76072W        W67996  13.732   3.781  52.428
76073W        W67997   1.250  20.260  53.326
76074W        W67998  43.189  34.715  50.606
76075W        W67999   0.754  28.253  49.685
76076W        W68000  40.197  19.240  49.674
76077W        W68001  45.678  24.728  51.041
76078W        W68002  30.743  39.200  50.142
76079W        W68003  20.239  42.223  50.134
76080W        W68004  27.242  36.718  50.583
76081W        W68005  17.731  10.256  49.697
76082W        W68006  20.753  41.693  51.967
76083W        W68007  47.679   7.761  51.966
76084W        W68008  12.240  38.223  53.785
76085W        W68009  45.213  36.700  51.980
76086W        W68010  27.723  26.207  51.512
76087W        W68011  28.739  28.747  52.874
76088W        W68012  35.717  14.739  51.970
76089W        W68013   4.284  13.274  50.156
76090W        W68014  48.193  33.220  50.598
76091W        W68015  33.215  29.732  51.055
76092W        W68016  22.732  41.194  49.701
76093W        W68017  22.262  29.233  51.964
76094W        W68018  22.261   4.784  51.502
76095W        W68019  40.220  26.212  53.780
76096W        W68020   2.282  12.747  50.121
76097W        W68021  36.220  12.274  52.420
76098W        W68022  31.201   9.751  51.498
76099W        W68023  18.256  31.216  51.499
76100W        W68024  41.699  26.707  52.902
76101W        W68025   6.772  11.269  51.980
76102W        W68026  14.275  32.197  51.967
76103W        W68027  23.223  19.236  51.958
76104W        W68028  11.280  29.205  53.779
76105W        W68029  37.698  47.684  50.588
76106W        W68030   3.750  41.725  53.355
76107W        W68031  33.733   2.273  52.870
76108W        W68032  20.735  13.243  51.535
76109W        W68033  20.765   2.747  52.866
76110W        W68034  28.204  37.214  53.809
76111W        W68035   3.754   9.264  52.900
76112W        W68036  16.271  38.716  52.879
76113W        W68037   8.247  28.738  49.686
76114W        W68038  47.207  44.224  51.951
76115W        W68039  28.712  42.715  51.973
76116W        W68040  23.260  35.712  52.409
76117W        W68041   3.277   3.754  50.137
76118W        W68042  11.756  48.219  49.695
76119W        W68043  10.762  36.716  51.517
76120W        W68044  21.254   9.766  52.405
76121W        W68045   5.773  47.176  51.064
76122W        W68046   6.285  26.223  51.978
76123W        W68047  15.745  39.212  53.358
76124W        W68048   5.279  43.695  53.341
76125W        W68049   7.282   6.780  52.416
76126W        W68050  34.199   9.736  53.356
76127W        W68051  29.229   1.284  53.326
76128W        W68052  23.258  13.245  52.901
76129W        W68053   8.742  26.706  50.620
76130W        W68054  11.751  48.184  50.600
76131W        W68055   1.775  31.210  49.705
76132W        W68056   8.277  20.755  49.691
76133W        W68057  26.232   3.261  51.527
76134W        W68058   1.779  33.237  50.125
76135W        W68059  14.735  47.216  51.504
76136W        W68060   2.768   2.247  50.145
76137W        W68061  23.738  31.717  53.341
76138W        W68062   8.244   1.249  53.776
76139W        W68063  34.702   2.249  49.679
76140W        W68064  30.705  32.224  51.506
76141W        W68065  10.276  39.704  51.493
76142W        W68066  40.692  33.228  52.867
76143W        W68067  22.727   0.795  49.679
76144W        W68068  38.192  26.710  50.582
76145W        W68069  35.193  45.205  51.528
76146W        W68070  25.254   4.786  52.433
76147W        W68071  16.248   2.271  51.949
76148W        W68072  40.701  21.232  50.157
76149W        W68073  26.747  25.739  51.506
76150W        W68074  37.700  36.235  51.034
76151W        W68075   8.240   0.252  52.443
76152W        W68076  27.715  10.245  52.898
76153W        W68077   1.278  38.213  50.135
76154W        W68078  19.759  21.738  51.528
76155W        W68079  27.216  14.742  53.343
76156W        W68080  43.714   5.283  51.052
76157W        W68081   6.746  23.731  50.149
76158W        W68082  36.731  27.209  51.531
76159W        W68083  12.272  35.213  53.321
76160W        W68084  33.209  14.754  51.069
76161W        W68085   5.256  12.741  50.592
76162W        W68086  29.210  15.228  51.065
76163W        W68087  35.737  36.703  52.883
76164W        W68088  46.721  43.721  51.517
76165W        W68089   4.771  19.740  52.867
76166W        W68090  25.737  16.760  51.959
76167W        W68091  40.209  20.737  51.954
76168W        W68092  24.225  43.206  50.135
76169W        W68093  15.232  32.206  51.520
76170W        W68094  15.758  44.678  49.674
76171W        W68095  11.249  20.754  53.356
76172W        W68096  47.211  27.241  50.137
76173W        W68097  42.708  32.229  51.510
76174W        W68098  19.267  22.756  52.414
76175W        W68099  39.210   0.796  51.984
76176W        W68100  29.229  33.201  50.128
76177W        W68101  45.693  47.216  50.606
76178W        W68102  35.209  25.217  51.972
76179W        W68103  19.247  42.724  50.603
76180W        W68104  47.189  27.730  49.675
76181W        W68105  43.217  36.703  51.058
76182W        W68106  37.711  39.709  52.890
76183W        W68107  38.213  34.725  53.789
76184W        W68108  12.241  33.734  53.774
76185W        W68109  20.748  18.250  53.345
76186W        W68110  29.246  34.719  51.496
76187W        W68111  45.676  12.244  49.693
76188W        W68112  45.706  18.722  51.529
76189W        W68113  30.722   6.285  50.152
76190W        W68114  41.221  16.748  50.607
76191W        W68115   2.780  36.202  53.773
76192W        W68116  21.737  11.731  51.063
76193W        W68117   0.282  11.274  50.126
76194W        W68118  29.735  16.761  52.882
76195W        W68119  38.713  28.735  52.407
76196W        W68120  14.756  14.770  53.797
76197W        W68121  46.175  37.707  51.496
76198W        W68122   1.293  11.269  49.682
76199W        W68123  44.203   2.270  53.773
76200W        W68124  19.756  27.714  49.672
76201W        W68125  21.220  46.699  53.801
76202W        W68126  14.729  31.701  53.350
76203W        W68127  37.202  34.730  51.059
76204W        W68128  29.711  27.731  52.899
76205W        W68129  38.220  24.214  50.165
76206W        W68130   5.274  15.260  49.686
76207W        W68131  21.728  34.699  49.687
76208W        W68132  14.253   1.253  52.442
76209W        W68133  25.708   7.254  50.139
76210W        W68134  29.230  28.704  51.055
76211W        W68135   5.760  18.746  51.960
76212W        W68136  44.215  16.243  49.672
76213W        W68137  24.726  28.707  50.165
76214W        W68138   8.251  40.200  50.606
76215W        W68139  36.692   2.259  53.335
76216W        W68140  27.230  41.715  50.139
76217W        W68141  36.720  42.182  51.981
76218W        W68142  40.225   4.270  53.772
76219W        W68143  19.244   5.776  51.074
76220W        W68144  23.715  45.215  51.959
76221W        W68145  10.251  25.209  50.596
76222W        W68146  38.724  36.719  51.978
76223W        W68147  25.717  26.250  50.157
76224W        W68148  25.248  14.232  50.604
76225W        W68149  45.689  15.750  51.515
76226W        W68150  33.202  40.227  49.699
76227W        W68151   7.251   0.295  49.680
76228W        W68152  14.255  17.738  52.891
76229W        W68153  13.757   1.761  52.404
76230W        W68154  37.705  35.221  52.900
76231W        W68155  11.766  10.234  51.975
76232W        W68156  15.745   5.754  53.783
76233W        W68157  26.253  34.240  53.773
76234W        W68158  40.227  39.212  51.507
76235W        W68159  20.727  26.248  51.971
76236W        W68160  28.238  17.253  52.414
76237W        W68161  20.748  36.714  53.815
76238W        W68162  31.722  35.702  52.883
76239W        W68163  25.233  27.230  51.523
76240W        W68164  13.763  21.233  52.887
76241W        W68165   1.260  48.177  51.516
76242W        W68166   2.795  25.249  51.963
76243W        W68167  34.207  29.207  51.979
76244W        W68168  43.226   0.259  50.152
76245W        W68169  35.740  26.254  51.954
76246W        W68170   0.251  38.710  50.584
76247W        W68171  35.197  17.227  52.860
76248W        W68172  14.726  29.740  53.317
76249W        W68173  17.254  45.194  49.697
76250W        W68174   6.781  20.261  53.804
76251W        W68175   1.766   6.283  49.689
76252W        W68176  19.733  30.228  50.151
76253W        W68177   4.291  26.738  52.883
76254W        W68178  27.712  45.705  51.492
76255W        W68179  40.190  16.272  52.881
76256W        W68180  14.245  29.219  50.160
76257W        W68181  17.268  48.191  52.418
76258W        W68182  39.197  40.721  52.433
76259W        W68183   7.249  15.257  53.340
76260W        W68184   1.292  27.238  50.604
76261W        W68185  31.199  46.194  51.496
76262W        W68186  45.198  35.727  53.790
76263W        W68187   9.239  39.704  50.593
76264W        W68188  33.245  23.755  50.128
76265W        W68189  48.216  17.237  49.668
76266W        W68190  29.235   1.759  51.990
76267W        W68191   6.747   9.752  51.960
76268W        W68192  10.768  46.695  50.125
76269W        W68193  46.692  10.776  51.502
76270W        W68194  28.209  27.737  52.867
76271W        W68195  33.695   3.756  53.357
76272W        W68196  15.761  22.746  49.675
76273W        W68197  47.199  26.213  53.319
76274W        W68198  43.199  16.756  50.587
76275W        W68199  10.754  44.714  51.983
76276W        W68200   0.269   4.269  50.164
76277W        W68201  31.724  41.183  52.890
76278W        W68202  10.252  42.211  51.506
76279W        W68203  45.206   4.277  52.420
76280W        W68204  17.265  45.697  51.057
76281W        W68205  46.685   8.769  52.434
76282W        W68206  39.228  48.196  52.898
76283W        W68207  26.208  34.235  53.325
76284W        W68208  24.241  44.697  51.953
76285W        W68209  28.707  10.736  52.865
76286W        W68210  15.256  42.209  51.062
76287W        W68211  12.271  38.717  52.422
76288W        W68212  41.720  24.758  53.787
76289W        W68213  13.774  46.206  53.344
76290W        W68214  28.733  30.242  52.433
76291W        W68215   3.748  31.712  51.508
76292W        W68216  39.192  17.264  51.985
76293W        W68217   6.788   2.786  51.965
76294W        W68218   8.779   4.764  52.405
76295W        W68219  35.698  38.192  52.870
76296W        W68220   3.287  27.208  51.949
76297W        W68221  11.276   0.774  51.990
76298W        W68222  27.753  39.214  53.330
76299W        W68223  47.711  18.262  50.139
76300W        W68224  26.246  19.245  50.165
76301W        W68225   6.753  28.242  51.062
76302W        W68226   5.251  41.223  51.064
76303W        W68227  25.723  38.691  49.665
76304W        W68228  31.226   4.781  51.067
76305W        W68229  33.242   2.788  53.775
76306W        W68230  13.235  30.730  53.338
76307W        W68231  38.728  24.753  53.346
76308W        W68232  41.691  44.678  51.494
76309W        W68233  33.740  32.205  50.580
76310W        W68234  21.728  32.731  53.349
76311W        W68235   2.266  27.746  53.798
76312W        W68236  41.687  37.715  50.136
76313W        W68237  42.701  24.213  51.956
76314W        W68238  18.230  24.755  51.057
76315W        W68239  19.738  13.268  50.134
76316W        W68240  16.745   7.240  52.866
76317W        W68241   2.281  14.741  51.067
76318W        W68242  13.248  36.217  49.697
76319W        W68243  10.766  38.189  52.884
76320W        W68244  10.233  46.180  53.319
76321W        W68245  47.217  43.707  51.508
76322W        W68246   8.760  21.751  52.902
76323W        W68247  40.189  13.771  49.674
76324W        W68248  34.233  11.260  52.878
76325W        W68249  19.231  25.753  51.072
76326W        W68250   5.272  16.755  53.789
76327W        W68251  46.682   3.772  50.604
76328W        W68252  18.229  13.776  50.156
76329W        W68253   1.282  11.263  50.606
76330W        W68254  28.711   9.260  51.965
76331W        W68255  37.219  36.710  52.443
76332W        W68256  37.195  21.752  51.511
76333W        W68257  11.734  39.707  50.605
76334W        W68258  38.717   1.793  53.333
76335W        W68259   9.752   1.772  53.347
76336W        W68260  35.240   4.746  50.154
76337W        W68261  46.696  15.756  51.510
76338W        W68262   1.252   3.791  53.812
76339W        W68263  28.708   1.282  51.990
76340W        W68264  28.250  41.230  50.128
76341W        W68265  24.221  45.194  49.697
76342W        W68266  22.250  10.769  53.322
76343W        W68267  16.758  24.720  52.890
76344W        W68268  16.243  32.222  53.336
76345W        W68269  43.701  38.202  50.149
76346W        W68270   2.756   4.285  53.337
76347W        W68271  27.250   9.747  51.971
76348W        W68272  16.739  22.244  53.345
76349W        W68273  24.724   3.278  49.688
76350W        W68274  42.696  34.698  52.415
76351W        W68275  36.723   0.266  51.956
76352W        W68276  20.229   5.266  52.895
76353W        W68277  27.251  15.252  53.357
76354W        W68278  45.723  21.247  52.422
76355W        W68279  18.252  15.750  51.981
76356W        W68280  47.179  32.715  51.049
76357W        W68281  27.232  43.712  50.580
76358W        W68282  28.736  35.734  50.164
76359W        W68283  32.733   9.283  51.984
76360W        W68284  36.717  48.215  51.526
76361W        W68285  24.256  10.778  50.146
76362W        W68286  42.724  32.222  51.961
76363W        W68287  30.743  43.718  50.155
76364W        W68288  38.212  33.244  52.862
76365W        W68289  38.698   2.257  52.877
76366W        W68290  31.746  36.206  53.808
76367W        W68291  21.248  16.268  52.408
76368W        W68292  23.232  45.718  53.776
76369W        W68293  23.241  47.690  53.327
76370W        W68294  40.207   4.766  53.359
76371W        W68295  47.689   5.257  53.802
76372W        W68296  17.235  19.758  53.332
76373W        W68297  40.195  15.737  50.158
76374W        W68298  24.736  45.692  51.075
76375W        W68299   1.761   2.750  50.587
76376W        W68300  46.199  27.251  49.703
76377W        W68301  47.688  13.251  52.871
76378W        W68302  16.770  38.709  50.133
76379W        W68303  42.206  46.707  50.600
76380W        W68304  12.249  23.259  51.069
76381W        W68305  10.776   0.285  50.126
76382W        W68306  44.185  33.198  50.141
76383W        W68307  42.221   0.782  50.160
76384W        W68308  32.202   5.259  51.976
76385W        W68309  39.701   4.248  53.347
76386W        W68310  18.236  15.744  51.069
76387W        W68311  28.705  33.730  51.059
76388W        W68312   6.245   0.793  52.891
76389W        W68313  18.735  16.235  51.986
76390W        W68314  25.746  39.190  52.405
76391W        W68315  40.185  36.206  51.521
76392W        W68316  30.223  33.721  53.326
76393W        W68317   8.753  32.721  52.870
76394W        W68318  24.753  29.246  53.788
76395W        W68319  45.680   1.253  49.669
76396W        W68320  47.182  46.682  53.812
76397W        W68321  30.704  48.178  51.528
76398W        W68322  17.767   5.784  49.679
76399W        W68323   2.247   0.271  52.422
76400W        W68324   8.254  41.198  52.422
76401W        W68325  37.729  47.205  52.439
76402W        W68326  20.737  18.251  51.525
76403W        W68327   0.274   7.281  51.509
76404W        W68328  30.243  27.226  53.775
76405W        W68329  19.255  40.686  50.156
76406W        W68330  40.712   5.254  51.976
76407W        W68331   8.773  20.731  49.665
76408W        W68332  22.748  18.259  51.961
76409W        W68333  15.762  28.707  49.708
76410W        W68334   8.264  31.717  49.679
76411W        W68335   5.759  12.745  51.947
76412W        W68336  28.224  18.243  51.054
76413W        W68337  33.723  17.243  51.520
76414W        W68338  22.753  42.715  50.588
76415W        W68339  34.241  26.716  52.865
76416W        W68340   9.755   7.258  53.813
76417W        W68341  30.719  10.282  51.493
76418W        W68342   8.783  42.701  53.335
76419W        W68343  22.248  12.276  50.597
76420W        W68344   8.749  38.220  51.509
76421W        W68345   8.745  32.709  50.139
76422W        W68346  20.754  10.262  51.497
76423W        W68347  34.209  42.695  52.418
76424W        W68348  26.256  27.251  53.347
76425W        W68349  30.725  24.228  53.328
76426W        W68350   8.275   1.270  51.954
76427W        W68351   5.780  23.712  53.783
76428W        W68352   2.246  30.743  49.668
76429W        W68353  41.688  34.715  50.590
76430W        W68354  46.689  29.241  51.063
76431W        W68355   4.791  48.203  52.863
76432W        W68356  33.715  16.727  53.787
76433W        W68357  38.730   7.771  51.044
76434W        W68358  46.703  22.753  51.497
76435W        W68359  47.186  33.223  50.160
76436W        W68360  34.208  12.245  53.321
76437W        W68361  33.722  45.703  52.871
76438W        W68362  48.187   9.781  53.329
76439W        W68363   2.271  12.275  51.530
76440W        W68364  11.760  12.756  50.134
76441W        W68365  12.777  17.228  51.492
76442W        W68366  27.221  24.243  50.596
76443W        W68367  42.722   9.242  49.700
76444W        W68368  48.192  28.729  51.501
76445W        W68369  42.708   3.786  51.968
76446W        W68370  31.239  39.217  53.353
76447W        W68371  32.242  34.724  53.801
76448W        W68372  13.261  39.689  50.136
76449W        W68373   6.784  25.209  50.146
76450W        W68374  22.726   8.751  49.695
76451W        W68375  34.221   5.251  52.889
76452W        W68376  45.204   5.272  53.786
76453W        W68377  31.738   2.273  52.888
76454W        W68378  40.185  11.239  52.886
76455W        W68379  34.711  38.732  51.039
76456W        W68380  12.257   2.292  53.789
76457W        W68381  14.758  36.724  53.796
76458W        W68382   4.772  39.215  50.154
76459W        W68383  29.749   7.249  49.669
76460W        W68384  31.731  22.258  51.510
76461W        W68385   8.276  16.224  50.605
76462W        W68386  42.701   0.778  49.678
76463W        W68387  25.725  32.211  52.900
76464W        W68388  10.764   3.263  51.078
76465W        W68389  24.259   6.784  51.041
76466W        W68390   2.774  12.746  51.959
76467W        W68391  30.220  10.279  53.808
76468W        W68392  45.690  44.215  51.982
76469W        W68393  12.259   8.739  51.039
76470W        W68394  19.736  14.766  53.340
76471W        W68395  25.230  28.235  53.319
76472W        W68396  14.240   9.269  51.048
76473W        W68397   4.775   2.759  51.954
76474W        W68398   2.794  37.197  51.497
76475W        W68399   9.751  42.726  50.597
76476W        W68400  14.230  38.703  49.671
76477W        W68401   7.278  22.226  52.419
76478W        W68402   4.263  21.243  52.876
76479W        W68403  26.243  15.258  53.811
76480W        W68404  39.707   6.270  51.966
76481W        W68405  23.760  32.227  50.128
76482W        W68406  25.748   8.262  50.584
76483W        W68407  36.697  45.221  53.359
76484W        W68408   8.785  23.758  52.445
76485W        W68409  15.249  32.243  53.345
76486W        W68410  42.684  19.739  51.506
76487W        W68411  20.252  30.738  52.430
76488W        W68412   6.760  26.227  53.351
76489W        W68413  32.728  13.750  51.041
76490W        W68414  25.714  28.246  53.780
76491W        W68415  20.734  14.752  51.521
76492W        W68416  31.213   8.757  49.707
76493W        W68417  47.186  16.268  51.975
76494W        W68418  29.244  31.238  50.150
76495W        W68419  37.718  28.706  52.410
76496W        W68420   8.238  32.724  49.682
76497W        W68421  36.214  19.268  51.057
76498W        W68422  30.720  35.701  51.509
76499W        W68423   3.752  20.229  51.517
76500W        W68424   0.785   1.776  49.677
76501W        W68425  34.724  38.233  49.699
76502W        W68426  43.695   2.792  53.817
76503W        W68427  11.252   9.274  49.669
76504W        W68428   2.763  40.690  51.060
76505W        W68429   8.755  34.722  52.412
76506W        W68430   0.297  19.256  52.404
76507W        W68431  44.704   1.766  51.506
76508W        W68432   9.753  11.265  51.968
76509W        W68433  42.702   3.791  49.675
76510W        W68434   3.258  21.258  52.433
76511W        W68435  22.721  25.225  53.359
76512W        W68436   8.777  34.221  53.356
76513W        W68437  10.257  20.719  53.801
76514W        W68438  13.755  33.712  51.508
76515W        W68439   9.263  32.226  49.680
76516W        W68440  23.736  22.248  52.428
76517W        W68441  31.716   4.743  51.066
76518W        W68442  12.774   6.749  50.149
76519W        W68443  45.721   3.264  51.492
76520W        W68444   5.778   8.761  51.060
76521W        W68445  37.208   5.242  53.779
76522W        W68446  23.750  32.743  50.137
76523W        W68447  16.230   8.785  51.516
76524W        W68448  25.228  42.718  51.980
76525W        W68449  36.717  34.206  49.676
76526W        W68450  41.203  16.758  53.773
76527W        W68451   4.784  32.733  50.592
76528W        W68452  47.691  36.226  52.424
76529W        W68453  42.713  34.739  52.870
76530W        W68454  38.212  10.233  50.153
76531W        W68455  47.711   9.784  49.692
76532W        W68456  27.729  16.243  52.891
76533W        W68457   1.264  13.247  53.335
76534W        W68458   2.293  16.744  50.156
76535W        W68459  26.254  18.265  50.144
76536W        W68460   5.773  25.730  53.351
76537W        W68461  19.748  47.681  51.984
76538W        W68462  21.724  27.727  50.137
76539W        W68463  15.272  28.714  51.073
76540W        W68464   6.246  39.693  52.879
76541W        W68465  26.755  22.230  50.605
76542W        W68466  15.265  39.703  51.529
76543W        W68467  31.219   2.759  51.496
76544W        W68468  15.770  10.263  52.434
76545W        W68469  39.695  47.194  50.617
76546W        W68470  12.266  25.733  51.981
76547W        W68471  41.216  28.725  50.140
76548W        W68472  20.719  27.751  53.806
76549W        W68473  18.749  21.734  50.598
76550W        W68474  18.234  32.732  49.674
76551W        W68475  32.228   5.291  52.425
76552W        W68476   1.297   9.781  50.602
76553W        W68477  18.220  26.755  52.413
76554W        W68478  28.249  44.686  53.779
76555W        W68479  35.726   5.767  50.623
76556W        W68480  30.707  45.204  53.340
76557W        W68481  48.214   3.247  50.588
76558W        W68482  46.717  16.247  53.776
76559W        W68483   5.243  39.198  50.609
76560W        W68484   1.758   9.268  49.684
76561W        W68485  23.222  36.233  51.988
76562W        W68486  22.732  22.762  53.797
76563W        W68487  22.248  19.257  50.615
76564W        W68488  47.693  42.707  53.780
76565W        W68489  13.753  36.224  50.149
76566W        W68490  42.206  36.208  50.139
76567W        W68491  37.208  14.748  52.905
76568W        W68492  43.180  10.761  50.131
76569W        W68493  26.231  12.244  51.043
76570W        W68494  37.730   2.773  51.966
76571W        W68495  45.700  31.246  52.417
76572W        W68496  20.232  47.701  51.511
76573W        W68497  30.734  30.720  52.436
76574W        W68498  43.688  31.737  50.588
76575W        W68499  20.738  29.731  53.813
76576W        W68500  16.742  13.757  50.139
76577W        W68501  38.233  10.279  52.861
76578W        W68502  11.763  46.199  49.708
76579W        W68503  37.724   5.279  50.581
76580W        W68504  22.257   8.775  49.672
76581W        W68505  15.232  25.255  51.967
76582W        W68506  37.706  35.216  52.407
76583W        W68507  21.742  39.199  49.704
76584W        W68508  47.201  11.273  51.522
76585W        W68509  30.720   5.254  51.063
76586W        W68510  14.773  15.766  49.700
76587W        W68511  37.719  41.214  50.162
76588W        W68512  26.255  16.241  49.672
76589W        W68513   4.781  36.701  51.048
76590W        W68514  45.212  15.245  50.155
76591W        W68515  24.753  48.176  52.900
76592W        W68516  11.736  33.712  51.976
76593W        W68517  25.721   2.274  53.360
76594W        W68518  18.242   0.285  52.424
76595W        W68519  13.277  45.188  49.702
76596W        W68520  15.724  29.235  50.122
76597W        W68521  33.226   0.290  49.667
76598W        W68522  13.757  35.195  51.529
76599W        W68523  37.230  10.258  52.435
76600W        W68524  26.253  12.274  53.790
76601W        W68525  27.716   3.776  49.666
76602W        W68526  13.257  45.697  53.806
76603W        W68527  27.247  33.241  53.348
76604W        W68528  13.766  31.248  51.034
76605W        W68529  42.684  43.689  50.160
76606W        W68530   4.748  36.719  49.709
76607W        W68531  12.752  28.248  50.588
76608W        W68532  15.736  25.238  50.138
76609W        W68533  19.761   6.773  51.968
76610W        W68534   7.266  13.260  50.620
76611W        W68535  47.683  48.204  50.152
76612W        W68536  11.735  22.745  51.035
76613W        W68537  15.229  41.208  53.359
76614W        W68538  15.251  17.732  50.150
76615W        W68539  30.706  39.217  51.042
76616W        W68540  43.199  35.194  51.518
76617W        W68541  23.216  33.699  51.505
76618W        W68542  27.746  29.713  51.048
76619W        W68543   9.242  24.225  53.792
76620W        W68544  31.710  25.729  51.038
76621W        W68545   5.762  25.741  49.675
76622W        W68546  17.737  26.216  49.691
76623W        W68547  41.220  18.739  52.409
76624W        W68548   5.785  17.235  53.787
76625W        W68549  40.228  34.697  49.691
76626W        W68550  19.747   8.782  51.505
76627W        W68551  13.276  32.218  49.700
76628W        W68552  47.691   3.287  50.150
76629W        W68553  39.200  11.269  52.875
76630W        W68554  47.689  29.237  51.504
76631W        W68555   7.763  41.696  53.817
76632W        W68556  25.735   3.749  50.160
76633W        W68557  37.237  46.194  51.957
76634W        W68558   7.751  42.681  53.319
76635W        W68559  29.710  15.258  53.783
76636W        W68560  33.733  44.687  50.151
76637W        W68561   0.277  32.726  51.526
76638W        W68562  22.239   5.246  51.047
76639W        W68563  17.749  41.730  53.336
76640W        W68564  14.726   0.787  51.060
76641W        W68565  12.776  27.715  50.588
76642W        W68566  22.229  12.758  51.981
76643W        W68567  24.211  28.208  53.328
76644W        W68568  24.730  18.754  51.970
76645W        W68569  32.204  23.240  52.866
76646W        W68570  10.255  22.219  52.422
76647W        W68571  16.752  35.720  53.319
76648W        W68572  20.223  20.250  51.950
76649W        W68573  17.740  42.724  49.708
76650W        W68574  43.727  10.767  50.585
76651W        W68575  25.734  21.764  50.594
76652W        W68576  18.722  47.211  50.618
76653W        W68577   5.287  22.755  50.588
76654W        W68578  39.711  38.222  53.802
76655W        W68579  45.683  34.198  50.593
76656W        W68580  32.232  15.233  51.053
76657W        W68581  14.758   0.760  51.508
76658W        W68582  25.720   5.744  51.061
76659W        W68583   5.257  35.217  49.706
76660W        W68584  41.217  28.704  51.532
76661W        W68585  45.702  22.761  49.670
76662W        W68586  28.207   0.778  50.583
76663W        W68587  21.261   4.768  52.870
76664W        W68588  38.220  33.709  51.974
76665W        W68589  44.692   2.757  51.976
76666W        W68590  18.226  38.693  51.973
76667W        W68591  46.191   2.257  51.040
76668W        W68592   8.760  19.256  50.126
76669W        W68593  31.730  35.732  51.958
76670W        W68594   1.279  40.217  52.864
76671W        W68595  45.721  35.239  51.073
76672W        W68596  13.756  11.270  53.347
76673W        W68597  16.260  37.213  51.946
76674W        W68598  17.224  25.744  51.508
76675W        W68599  32.734  27.713  50.608
76676W        W68600   2.784   4.248  52.408
76677W        W68601   0.757  35.220  50.163
76678W        W68602  39.699  39.217  49.682
76679W        W68603  36.216   3.276  50.601
76680W        W68604  47.700  17.236  50.128
76681W        W68605  14.749  45.202  51.972
76682W        W68606   1.250  12.236  51.047
76683W        W68607  29.247  24.749  51.518
76684W        W68608  30.203  40.187  50.160
76685W        W68609  14.250  35.736  53.784
76686W        W68610  35.695   6.739  53.333
76687W        W68611  24.709  47.201  50.591
76688W        W68612  13.260  22.217  49.669
76689W        W68613  11.754  23.249  52.446
76690W        W68614  28.716  13.235  51.969
76691W        W68615  23.719  17.265  51.519
76692W        W68616  21.727   9.774  50.583
76693W        W68617   5.266   7.278  53.339
76694W        W68618  29.235  19.742  49.686
76695W        W68619   7.240  44.715  49.696
76696W        W68620  25.733  43.690  52.426
76697W        W68621   7.275  37.196  50.140
76698W        W68622   6.768  37.202  53.778
76699W        W68623   2.271  10.281  53.354
76700W        W68624  13.737  43.688  52.903
76701W        W68625  37.718  13.748  52.885
76702W        W68626  12.747  24.244  52.437
76703W        W68627  40.706  48.208  52.859
76704W        W68628   3.771  45.201  52.862
76705W        W68629   9.280  11.252  51.989
76706W        W68630   9.279  23.260  49.702
76707W        W68631  40.728  46.709  49.693
76708W        W68632  36.231   8.752  50.158
76709W        W68633  21.751   7.267  51.963
76710W        W68634  30.223  25.735  50.124
76711W        W68635  17.246  26.722  52.421
76712W        W68636   9.743  30.723  53.349
76713W        W68637   1.253  44.677  53.331
76714W        W68638  35.196  34.720  49.695
76715W        W68639  33.223  33.199  53.329
76716W        W68640  28.250  32.241  51.983
76717W        W68641  22.716  19.231  52.436
76718W        W68642  42.729   6.750  53.354
76719W        W68643   9.281  27.239  53.341
76720W        W68644  19.219  11.757  53.806
76721W        W68645   1.293  41.212  51.958
76722W        W68646  30.205  24.734  52.409
76723W        W68647  42.214  17.254  52.435
76724W        W68648  19.226  16.272  52.423
76725W        W68649  21.750  17.740  52.888
76726W        W68650  25.249  41.217  50.151
76727W        W68651  19.750  31.733  51.490
76728W        W68652   8.284  13.269  52.409
76729W        W68653  23.737  43.702  52.406
76730W        W68654  14.775   9.270  51.057
76731W        W68655  37.710  22.236  51.048
76732W        W68656   1.254  35.739  52.881
76733W        W68657  30.741  34.238  49.675
76734W        W68658   4.750  13.267  51.524
76735W        W68659  17.246  43.199  51.981
76736W        W68660  12.771  26.241  51.512
76737W        W68661   2.788  25.730  50.615
76738W        W68662  38.211  29.239  53.319
76739W        W68663   5.767  19.726  51.984
76740W        W68664  46.679  39.689  53.339
76741W        W68665  38.207  13.727  53.337
76742W        W68666  16.234   1.748  50.585
76743W        W68667  10.244  28.708  53.338
76744W        W68668  22.243  18.266  53.339
76745W        W68669  47.703  17.266  52.866
76746W        W68670  21.759  12.257  50.589
76747W        W68671  28.742  38.708  50.615
76748W        W68672  30.739   8.785  53.320
76749W        W68673  44.190   2.275  50.602
76750W        W68674  14.248  47.179  51.077
76751W        W68675  20.742   3.787  51.533
76752W        W68676  28.738  30.722  50.142
76753W        W68677  39.210  44.704  50.133
76754W        W68678  18.265  21.763  50.590
76755W        W68679   2.778  19.754  52.887
76756W        W68680  33.696  30.230  50.134
76757W        W68681  35.226  28.738  51.969
76758W        W68682  30.718   4.259  49.700
76759W        W68683   7.283   7.262  53.347
76760W        W68684  17.265  19.254  50.615
76761W        W68685   9.771  28.719  51.073
76762W        W68686  17.249  47.175  50.153
76763W        W68687  38.707  43.186  51.529
76764W        W68688  47.692  16.229  52.900
76765W        W68689  26.220   9.749  51.948
76766W        W68690  35.710  21.735  49.688
76767W        W68691  33.235  40.198  53.813
76768W        W68692  12.262  27.218  52.889
76769W        W68693   9.773  28.223  50.597
76770W        W68694   8.778  32.701  49.693
76771W        W68695   0.792  38.228  52.427
76772W        W68696  12.741  32.217  50.128
76773W        W68697   2.281   7.754  52.903
76774W        W68698  32.246  39.214  49.701
76775W        W68699  27.719   7.260  50.133
76776W        W68700  21.726  18.245  49.690
76777W        W68701  20.237  21.750  50.147
76778W        W68702  22.753  25.734  53.783
76779W        W68703   0.274  34.721  50.133
76780W        W68704  32.709   8.250  49.677
76781W        W68705   4.249  36.217  51.980
76782W        W68706  30.749  12.732  50.147
76783W        W68707  36.735  31.241  49.693
76784W        W68708  34.701  29.727  53.814
76785W        W68709  13.242  19.255  51.068
76786W        W68710  47.704  27.211  50.622
76787W        W68711  42.722  44.701  50.144
76788W        W68712  34.223  15.730  51.050
76789W        W68713   3.289  15.233  51.959
76790W        W68714  38.705   8.262  51.078
76791W        W68715  34.734  27.225  50.577
76792W        W68716  26.749  28.714  51.531
76793W        W68717   8.286  46.687  50.589
76794W        W68718   0.793  21.263  51.052
76795W        W68719  42.192  19.242  53.316
76796W        W68720   8.285  38.734  51.051
76797W        W68721  17.239  19.259  51.527
76798W        W68722   5.246  46.217  50.584
76799W        W68723  47.717  21.219  49.675
76800W        W68724  45.211  24.747  49.678
76801W        W68725   4.777  19.257  49.665
76802W        W68726  29.234   9.744  52.901
76803W        W68727   7.776  38.697  51.977
76804W        W68728   5.789  45.206  53.347
76805W        W68729  46.187  25.224  52.404
76806W        W68730  39.214  43.205  51.532
76807W        W68731  45.184  30.708  53.790
76808W        W68732  46.213  31.700  50.598
76809W        W68733  17.769   1.273  51.496
76810W        W68734  33.223  14.755  52.426
76811W        W68735   8.745  27.707  51.046
76812W        W68736  35.701  30.719  53.359
76813W        W68737  41.723  12.236  51.035
76814W        W68738   3.279  28.715  49.675
76815W        W68739  30.240  10.777  51.990
76816W        W68740  18.253  47.208  51.495
76817W        W68741  26.237  44.708  52.883
76818W        W68742  20.745  12.767  50.596
76819W        W68743  42.716  41.712  53.816
76820W        W68744  22.251  16.268  52.899
76821W        W68745   3.276  24.719  50.148
76822W        W68746   2.285   6.275  51.989
76823W        W68747  13.245  11.233  50.131
76824W        W68748   0.786   1.290  50.607
76825W        W68749   1.749  40.689  52.412
76826W        W68750   5.761  28.212  53.348
76827W        W68751  29.219   9.265  53.324
76828W        W68752  38.711  35.225  50.148
76829W        W68753   3.286  13.229  51.079
76830W        W68754  44.189  38.736  52.406
76831W        W68755  25.722  45.675  52.861
76832W        W68756   9.777   0.757  51.512
76833W        W68757   3.788  25.756  52.411
76834W        W68758  39.691  22.754  52.436
76835W        W68759  30.738  17.232  51.978
76836W        W68760  12.763  31.230  51.059
76837W        W68761  15.238  33.220  51.531
76838W        W68762   7.767  33.198  49.667
76839W        W68763   5.252  45.719  50.614
76840W        W68764  18.721  23.236  53.780
76841W        W68765   7.260   6.785  51.967
76842W        W68766  11.234  40.196  52.885
76843W        W68767  32.729  18.739  50.580
76844W        W68768  13.751  34.729  51.514
76845W        W68769   8.752  32.742  50.579
76846W        W68770  43.687   9.765  51.051
76847W        W68771  18.238  47.180  50.601
76848W        W68772  15.275  21.217  51.497
76849W        W68773  17.735  20.745  50.601
76850W        W68774  11.778  37.192  49.689
76851W        W68775  40.710  46.212  51.072
76852W        W68776  14.242  36.731  51.975
76853W        W68777  40.709  44.185  51.035
76854W        W68778   2.253  36.718  52.886
76855W        W68779  23.247  35.737  51.066
76856W        W68780  14.245  19.751  51.504
76857W        W68781  17.754  17.753  51.069
76858W        W68782  26.216  16.763  53.360
76859W        W68783  46.222   4.271  52.406
76860W        W68784  12.276  16.738  51.078
76861W        W68785  38.693  46.677  52.430
76862W        W68786  17.239  28.736  53.316
76863W        W68787   2.284   8.747  50.587
76864W        W68788  37.191  21.258  49.676
76865W        W68789  24.721   2.793  50.604
76866W        W68790  48.171  48.203  51.496
76867W        W68791  33.717   5.261  53.795
76868W        W68792  16.761  29.735  51.050
76869W        W68793  44.716  33.207  53.341
76870W        W68794  37.711  18.223  51.530
76871W        W68795  20.756   9.763  50.148
76872W        W68796  27.752   4.289  53.777
76873W        W68797  41.702   8.240  50.608
76874W        W68798  33.201  29.204  52.426
76875W        W68799   7.275  38.193  52.872
76876W        W68800  36.739   7.764  52.415
76877W        W68801  44.699  10.264  51.050
76878W        W68802  42.190   3.786  51.055
76879W        W68803  35.207  17.725  53.361
76880W        W68804  46.218   9.255  51.074
76881W        W68805  26.220  13.256  49.710
76882W        W68806  42.708   3.265  51.505
76883W        W68807  17.223   5.271  50.614
76884W        W68808  32.739   8.257  50.591
76885W        W68809  33.715  44.191  53.351
76886W        W68810  34.205  48.205  51.985
76887W        W68811  30.736   1.282  51.949
76888W        W68812  20.760  40.195  53.357
76889W        W68813  12.750  21.240  53.347
76890W        W68814  31.730  41.215  53.791
76891W        W68815   9.771  25.756  50.144
76892W        W68816  32.708  43.225  51.067
76893W        W68817   0.262   8.275  50.591
76894W        W68818   2.764  46.210  51.077
76895W        W68819  35.700   2.288  49.704
76896W        W68820   5.288  30.725  50.122
76897W        W68821  39.212  28.252  50.145
76898W        W68822  44.709  13.758  50.607
76899W        W68823   8.278  16.244  53.334
76900W        W68824  36.731  40.697  53.346
76901W        W68825  43.686  42.219  52.905
76902W        W68826  43.220  41.206  53.342
76903W        W68827   5.245  20.747  50.166
76904W        W68828  48.210  18.750  52.419
76905W        W68829  19.261  14.267  50.612
76906W        W68830  13.747  17.232  51.516
76907W        W68831  48.207  19.227  52.406
76908W        W68832  21.758  33.239  51.975
76909W        W68833  16.266  12.743  50.125
76910W        W68834   6.263  25.241  52.885
76911W        W68835   7.272  15.760  50.141
76912W        W68836  28.205  31.721  51.954
76913W        W68837  10.739  45.693  50.156
76914W        W68838  14.241  14.253  52.885
76915W        W68839  46.714  43.220  51.532
76916W        W68840  25.743  27.231  51.529
76917W        W68841  47.695  17.726  52.889
76918W        W68842  32.703  42.199  51.038
76919W        W68843  21.737   7.277  50.585
76920W        W68844  13.249   3.247  53.348
76921W        W68845  21.254  36.230  50.590
76922W        W68846  32.702  38.223  53.327
76923W        W68847  46.196  36.230  49.672
76924W        W68848  11.759  29.232  51.490
76925W        W68849  32.738  26.256  51.057
76926W        W68850   0.779  12.756  50.132
76927W        W68851  46.720  43.215  52.421
76928W        W68852  37.233  13.247  53.814
76929W        W68853  45.201   5.750  52.426
76930W        W68854   8.746  48.192  53.810
76931W        W68855  29.208  41.687  50.585
76932W        W68856  34.735   9.260  51.036
76933W        W68857  32.713  21.228  49.709
76934W        W68858  13.750   3.755  53.807
76935W        W68859  45.200  43.696  51.970
76936W        W68860  13.731  24.251  51.984
76937W        W68861  30.207  25.729  52.423
76938W        W68862  46.693  18.261  53.358
76939W        W68863  26.219  38.731  51.069
76940W        W68864  36.224   3.282  52.865
76941W        W68865   6.250   7.284  51.061
76942W        W68866   4.768   3.755  53.324
76943W        W68867  33.719  22.752  52.404
76944W        W68868  11.777   4.286  51.956
76945W        W68869  28.219  46.188  53.786
76946W        W68870  26.739  15.236  52.879
76947W        W68871  15.774  29.720  51.037
76948W        W68872  26.236  29.223  50.616
76949W        W68873  34.216  39.696  50.623
76950W        W68874  24.720  37.732  51.960
76951W        W68875  45.678  46.188  51.057
76952W        W68876  20.254  47.672  53.802
76953W        W68877  22.735  11.766  52.879
76954W        W68878  22.256  32.225  51.518
76955W        W68879  19.267  12.251  50.131
76956W        W68880  19.749  23.751  52.417
76957W        W68881  40.685  32.207  51.961
76958W        W68882  38.191  22.750  52.405
76959W        W68883   5.746   3.279  51.532
76960W        W68884  38.205  10.236  51.040
76961W        W68885  36.205  35.219  53.358
76962W        W68886  47.221  22.717  49.704
76963W        W68887   4.783  42.196  52.414
76964W        W68888  42.699  19.721  49.702
76965W        W68889  46.709   7.264  51.986
76966W        W68890  37.214  35.705  53.808
76967W        W68891  29.220  45.187  53.801
76968W        W68892  16.746  25.717  51.505
76969W        W68893   2.264   5.741  50.136
76970W        W68894  33.233  34.240  52.870
76971W        W68895  22.218  10.258  51.048
76972W        W68896  11.263  16.264  51.955
76973W        W68897  45.186  11.247  52.443
76974W        W68898   4.255   4.784  51.040
76975W        W68899  37.726  30.745  51.045
76976W        W68900  19.757  30.233  51.499
76977W        W68901  35.714  15.271  49.680
76978W        W68902  10.246  31.210  50.599
76979W        W68903  11.756  31.206  53.338
76980W        W68904  22.751  14.756  53.774
76981W        W68905   8.255  17.744  49.667
76982W        W68906   1.278  31.201  53.325
76983W        W68907   2.757  33.216  52.885
76984W        W68908  23.219  43.184  50.585
76985W        W68909   4.775  25.712  53.797
76986W        W68910  47.717  38.688  51.498
76987W        W68911  15.737  14.747  49.688
76988W        W68912  16.764   3.766  51.955
76989W        W68913  40.731  12.249  50.591
76990W        W68914   2.282  10.235  49.680
76991W        W68915  40.703  39.700  52.437
76992W        W68916   8.276  10.281  53.350
76993W        W68917   3.793  34.706  50.154
76994W        W68918   5.282  10.754  49.683
76995W        W68919  38.705  28.229  53.319
76996W        W68920   8.767   8.276  50.579
76997W        W68921   7.777  47.678  53.786
76998W        W68922  13.758   8.756  49.698
76999W        W68923  31.244   2.766  52.415
77000W        W68924  16.741   4.773  50.140
77001W        W68925  30.722  41.705  49.679
77002W        W68926  48.200  28.746  52.440
77003W        W68927  12.768  10.759  51.529
77004W        W68928  33.203  25.750  50.153
77005W        W68929  26.740  46.183  52.895
77006W        W68930   2.283   3.775  53.799
77007W        W68931  32.222   1.775  49.702
77008W        W68932   3.760  35.692  50.609
77009W        W68933   6.263  11.742  53.321
77010W        W68934   4.284  41.711  51.969
77011W        W68935  36.694  47.699  53.794
77012W        W68936  23.239  46.704  50.166
77013W        W68937  35.695   7.748  51.071
77014W        W68938   5.248   2.772  51.524
77015W        W68939  10.244   7.244  52.413
77016W        W68940  21.239  34.213  50.580
77017W        W68941  16.235  17.733  52.440
77018W        W68942  32.733  32.705  50.618
77019W        W68943  42.681  28.223  52.412
77020W        W68944  28.250  24.212  51.042
77021W        W68945  18.728   7.781  50.596
77022W        W68946  25.747  31.209  50.141
77023W        W68947  39.202  38.227  52.899
77024W        W68948   5.288  36.692  52.420
77025W        W68949  44.189  28.206  49.675
77026W        W68950  39.685  34.214  51.044
77027W        W68951  32.722  41.199  50.596
77028W        W68952  35.230  38.212  49.705
77029W        W68953   7.262  25.713  50.583
77030W        W68954  14.741  46.195  53.338
77031W        W68955  27.240  10.249  51.518
77032W        W68956  42.191  40.699  50.151
77033W        W68957  31.209  20.736  52.445
77034W        W68958  28.704   1.293  51.059
77035W        W68959  12.775  21.217  49.686
77036W        W68960  13.743  25.747  52.890
77037W        W68961  17.721  23.716  50.591
77038W        W68962  47.177  10.272  51.055
77039W        W68963  10.241  24.755  50.611
77040W        W68964  48.218   9.743  51.959
77041W        W68965  39.725  21.717  52.412
77042W        W68966  21.715  28.235  53.358
77043W        W68967  37.693  23.231  49.707
77044W        W68968  16.260  31.227  49.702
77045W        W68969  21.232  13.743  50.579
77046W        W68970  26.218  23.253  53.783
77047W        W68971  43.678  39.214  52.881
77048W        W68972  24.250  16.231  51.508
77049W        W68973  20.762  21.754  49.675
77050W        W68974   9.753  45.710  53.323
77051W        W68975  47.189   6.745  49.687
77052W        W68976  17.728   1.778  50.139
77053W        W68977   5.268  13.259  51.043
77054W        W68978  25.712  21.265  51.515
77055W        W68979  17.756   7.771  51.498
77056W        W68980  22.219  28.717  53.353
77057W        W68981  14.750  26.722  52.422
77058W        W68982  42.703  46.215  51.502
77059W        W68983  21.231  23.728  51.963
77060W        W68984   2.252  26.229  53.358
77061W        W68985  37.715   8.768  51.044
77062W        W68986   8.756  19.754  50.580
77063W        W68987  24.733  17.757  53.316
77064W        W68988  15.239  34.722  49.671
77065W        W68989  39.231  15.754  52.426
77066W        W68990  22.724  43.190  52.893
77067W        W68991  34.205  33.710  52.881
77068W        W68992  41.225  23.748  50.589
77069W        W68993   9.778  15.755  51.981
77070W        W68994  26.240  16.754  53.816
77071W        W68995  41.714   0.288  51.492
77072W        W68996  36.202  11.765  52.428
77073W        W68997  32.235  11.267  51.503
77074W        W68998  19.742   2.284  53.340
77075W        W68999  28.717  16.245  52.879
77076W        W69000   0.286  28.729  49.675
77077W        W69001  42.724  35.729  51.972
77078W        W69002  20.764   8.751  53.808
77079W        W69003  32.711  12.740  50.137
77080W        W69004  26.247   6.262  51.972
77081W        W69005  32.732  12.768  53.352
77082W        W69006  30.746  27.213  49.676
77083W        W69007  14.231   2.778  53.334
77084W        W69008   9.266   4.790  51.492
77085W        W69009  33.213  44.210  53.805
77086W        W69010  26.744  23.252  51.954
77087W        W69011   4.787  42.208  52.885
77088W        W69012  31.239  22.723  52.416
77089W        W69013  20.246  34.203  53.328
77090W        W69014  24.227  22.714  49.697
77091W        W69015   1.782  20.226  52.404
77092W        W69016  45.194   0.280  50.132
77093W        W69017  23.241   0.778  50.135
77094W        W69018   7.784  46.174  52.894
77095W        W69019  41.716  21.740  52.870
77096W        W69020  28.744  30.737  51.974
77097W        W69021   7.744  10.249  53.360
77098W        W69022  37.236  14.730  51.525
77099W        W69023  27.750  18.763  52.900
77100W        W69024  42.191  33.206  51.957
77101W        W69025  26.736  43.198  50.608
77102W        W69026  16.242  32.720  53.349
77103W        W69027  48.196  33.697  51.976
77104W        W69028   2.772  39.189  51.049
77105W        W69029  29.209  17.269  50.128
77106W        W69030  23.713  11.745  53.319
77107W        W69031  26.745  36.696  50.133
77108W        W69032  42.196  28.210  52.876
77109W        W69033   9.783  43.195  53.777
77110W        W69034  17.266  40.693  51.491
77111W        W69035  13.267   4.281  50.158
77112W        W69036  36.731  21.736  50.152
77113W        W69037   3.773  31.735  52.410
77114W        W69038   5.760   7.785  51.061
77115W        W69039  35.202  39.231  52.900
77116W        W69040  44.716  16.733  53.329
77117W        W69041  33.704   0.272  49.686
77118W        W69042  44.692  17.723  51.985
77119W        W69043  32.234  40.208  51.507
77120W        W69044  39.702  30.210  53.814
77121W        W69045  45.196  12.761  53.775
77122W        W69046  27.250  16.232  53.344
77123W        W69047  31.238  28.719  49.685
77124W        W69048  10.764  23.233  51.037
77125W        W69049  24.740  10.280  49.686
77126W        W69050  15.725   5.772  52.431
77127W        W69051   6.289  21.217  53.804
77128W        W69052  41.213  37.237  50.582
77129W        W69053  14.736  40.713  51.524
77130W        W69054  37.695  46.187  51.967
77131W        W69055  15.266  15.236  51.513
77132W        W69056  34.227  13.744  53.354
77133W        W69057  42.214  42.710  53.800
77134W        W69058  27.739  11.771  50.128
77135W        W69059  33.711   8.759  53.332
77136W        W69060  45.198  20.740  51.519
77137W        W69061  12.233  47.179  53.816
77138W        W69062  27.744  26.717  51.954
77139W        W69063   7.778  20.254  53.343
77140W        W69064  47.222  26.214  50.600
77141W        W69065  30.729  38.225  49.709
77142W        W69066  32.740  33.731  52.408
77143W        W69067  20.230  48.193  52.883
77144W        W69068  16.242  39.727  51.069
77145W        W69069  41.726   6.753  51.058
77146W        W69070   3.259   9.252  50.146
77147W        W69071  42.216  23.721  52.406
77148W        W69072   6.782  17.269  52.870
77149W        W69073  47.709  46.715  52.423
77150W        W69074  10.271   4.790  51.512
77151W        W69075  42.715  23.248  50.600
77152W        W69076  36.200  13.242  51.508
77153W        W69077  44.210  13.260  52.407
77154W        W69078  44.677  31.241  50.609
77155W        W69079   3.294   3.782  52.875
77156W        W69080  40.731   3.282  52.872
77157W        W69081  21.762  25.757  49.673
77158W        W69082  33.707  42.696  52.884
77159W        W69083  28.230   7.240  53.316
77160W        W69084  35.698  28.204  50.148
77161W        W69085  47.221  46.174  49.668
77162W        W69086   1.280  26.230  53.351
77163W        W69087  16.723  13.275  49.677
77164W        W69088   7.777   6.249  53.341
77165W        W69089  33.736  29.722  50.129
77166W        W69090  46.203  42.693  52.426
77167W        W69091  32.239  10.267  50.165
77168W        W69092  20.250  21.726  52.859
77169W        W69093  34.730  43.191  50.615
77170W        W69094  43.717  15.734  49.697
77171W        W69095  35.725  26.723  53.354
77172W        W69096  31.234  47.205  50.612
77173W        W69097  46.174  17.735  49.693
77174W        W69098  48.198  41.208  52.438
77175W        W69099  10.766  32.199  51.072
77176W        W69100  44.197  34.206  52.891
77177W        W69101  30.202  38.193  49.708
77178W        W69102   9.246  37.197  49.693
77179W        W69103  31.218   0.781  51.496
77180W        W69104   3.757  39.703  49.709
77181W        W69105   7.743  22.741  53.344
77182W        W69106  48.214  28.722  51.039
77183W        W69107  27.724  24.739  52.438
77184W        W69108  17.264  22.728  51.991
77185W        W69109  20.717   3.279  49.678
77186W        W69110  18.730  33.730  52.859
77187W        W69111  31.211  12.256  53.777
77188W        W69112  47.195  14.742  51.524
77189W        W69113  38.218  13.237  53.347
77190W        W69114  25.213  28.233  49.699
77191W        W69115  15.265  46.204  49.679
77192W        W69116  29.745  18.725  49.704
77193W        W69117  46.196  24.229  50.593
77194W        W69118  26.742   6.763  51.991
77195W        W69119  33.213  37.211  49.676
77196W        W69120  11.278  32.732  51.986
77197W        W69121  25.727  36.231  53.816
77198W        W69122  11.262  41.715  51.535
77199W        W69123  31.207  38.226  49.675
77200W        W69124  14.230  16.235  52.889
77201W        W69125  12.769  44.223  53.352
77202W        W69126  29.740   5.789  52.426
77203W        W69127  47.720  32.202  52.870
77204W        W69128  33.230  31.218  53.777
77205W        W69129  23.259  42.219  50.582
77206W        W69130  37.231  17.235  50.577
77207W        W69131   1.757  26.211  53.317
77208W        W69132   5.772   4.287  51.065
77209W        W69133  17.739  32.702  50.133
77210W        W69134  19.744  15.748  53.811
77211W        W69135  26.223  35.726  49.693
77212W        W69136  26.219  39.689  50.621
77213W        W69137  41.694   7.779  51.516
77214W        W69138  13.733  16.233  50.603
77215W        W69139  20.264  31.225  50.592
77216W        W69140  13.745  33.224  50.609
77217W        W69141  14.236  41.227  50.610
77218W        W69142  44.226   9.245  53.783
77219W        W69143  16.257  13.740  50.605
77220W        W69144  39.204  17.769  51.971
77221W        W69145   6.255   4.755  50.152
77222W        W69146  43.688  37.710  50.137
77223W        W69147  16.738  25.722  52.447
77224W        W69148  43.694  20.731  50.613
77225W        W69149  12.247  13.730  51.051
77226W        W69150  29.204   8.238  52.437
77227W        W69151  32.724  39.715  53.334
77228W        W69152  17.750  33.744  53.800
77229W        W69153   5.788  30.722  50.152
77230W        W69154  20.742  44.201  52.443
77231W        W69155   4.255  27.710  49.695
77232W        W69156   6.780   5.266  50.134
77233W        W69157  10.238  21.743  52.439
77234W        W69158   8.740  25.257  50.599
77235W        W69159  37.229   0.792  50.166
77236W        W69160  33.714  21.757  53.773
77237W        W69161  12.750  48.173  53.817
77238W        W69162  19.264  47.675  49.690
77239W        W69163  14.258  29.717  53.328
77240W        W69164  11.239   6.741  50.595
77241W        W69165  47.193  44.719  53.784
77242W        W69166  44.694  42.198  52.875
77243W        W69167   8.265   8.749  49.684
77244W        W69168  24.229  11.755  50.617
77245W        W69169   0.790  25.220  51.520
77246W        W69170  21.260  30.719  49.692
77247W        W69171  19.737   9.776  52.433
77248W        W69172  16.255   8.241  50.599
77249W        W69173  21.234   3.777  49.686
77250W        W69174  37.222  26.219  53.800
77251W        W69175  21.219  36.220  53.772
77252W        W69176  28.242  38.224  49.692
77253W        W69177  23.219   9.760  52.887
77254W        W69178  32.699   4.286  51.988
77255W        W69179   0.285  47.715  51.968
77256W        W69180  32.199  48.211  50.607
77257W        W69181   3.746   8.264  52.879
77258W        W69182   1.294  34.709  50.150
77259W        W69183  17.267  16.268  53.357
77260W        W69184  17.726  44.690  53.335
77261W        W69185  21.730   7.739  52.891
77262W        W69186  17.752  40.721  52.899
77263W        W69187  10.755  45.694  52.882
77264W        W69188  19.761   1.255  51.517
77265W        W69189  39.196   2.762  49.706
77266W        W69190  26.745  10.743  50.137
77267W        W69191  20.731   2.785  49.708
77268W        W69192   7.252   4.746  52.427
77269W        W69193  44.226  22.235  52.873
77270W        W69194   1.292  14.274  53.322
77271W        W69195  22.219  45.710  51.067
77272W        W69196  36.735  30.226  50.137
77273W        W69197  39.727  29.234  51.988
77274W        W69198   6.245  35.724  51.517
77275W        W69199  20.727   8.250  49.684
77276W        W69200  24.720  17.755  52.424
77277W        W69201   0.751  44.193  51.951
77278W        W69202   5.287  26.740  52.408
77279W        W69203  37.721  11.254  52.442
77280W        W69204  24.225  44.693  52.872
77281W        W69205  21.734   8.779  52.420
77282W        W69206  16.272   0.272  50.596
77283W        W69207   2.749   7.761  50.601
77284W        W69208  30.730   5.259  53.791
77285W        W69209   3.269  15.242  52.420
77286W        W69210  27.731  42.187  52.875
77287W        W69211  40.685  45.700  50.608
77288W        W69212  29.719  47.209  50.133
77289W        W69213  11.774  23.731  53.802
77290W        W69214   7.261   1.262  50.156
77291W        W69215  27.217  29.706  52.436
77292W        W69216  41.209  27.728  49.681
77293W        W69217  31.739  38.217  53.316
77294W        W69218  44.191  15.731  52.900
77295W        W69219  15.247  36.220  53.772
77296W        W69220  18.728  27.711  51.509
77297W        W69221  29.224  40.714  51.508
77298W        W69222   6.245  33.722  53.334
77299W        W69223  10.739  28.722  50.595
77300W        W69224  30.746  40.702  52.883
77301W        W69225  45.224  32.713  53.334
77302W        W69226   3.781  14.235  52.897
77303W        W69227   5.288  26.251  51.043
77304W        W69228  39.221  31.230  53.341
77305W        W69229  28.216  14.276  52.901
77306W        W69230  45.180  45.212  50.141
77307W        W69231  34.738  32.217  51.960
77308W        W69232  26.707  28.750  52.442
77309W        W69233  21.217  13.741  50.154
77310W        W69234  22.723  36.693  52.898
77311W        W69235  25.226   8.266  51.068
77312W        W69236  44.195  10.748  52.884
77313W        W69237  43.706  29.221  53.355
77314W        W69238  27.226   9.246  53.807
77315W        W69239  12.274  30.225  53.817
77316W        W69240  31.240   4.280  51.522
77317W        W69241  24.746  26.746  53.318
77318W        W69242  45.222  45.687  51.053
77319W        W69243  16.257  30.205  51.496
77320W        W69244  10.736  24.726  52.883
77321W        W69245  16.251  15.738  52.404
77322W        W69246  43.207  13.769  51.962
77323W        W69247   6.286  12.758  49.691
77324W        W69248  46.182  12.754  53.335
77325W        W69249  47.214  36.227  52.440
77326W        W69250  31.213  44.207  53.332
77327W        W69251  32.697  23.727  53.354
77328W        W69252  34.213  16.246  50.131
77329W        W69253  13.230   5.773  53.778
77330W        W69254   2.262  44.207  52.872
77331W        W69255  24.741   8.736  53.816
77332W        W69256  22.253  26.755  51.522
77333W        W69257  11.776  18.228  50.582
77334W        W69258  19.251   6.285  52.419
77335W        W69259  10.744  20.747  53.815
77336W        W69260   0.771  30.239  52.434
77337W        W69261  38.693  18.768  51.052
77338W        W69262  18.252  39.214  52.419
77339W        W69263  43.726  36.223  51.037
77340W        W69264  17.724  30.710  51.065
77341W        W69265  18.754   9.765  51.535
77342W        W69266  31.739  43.688  52.883
77343W        W69267  45.675   4.783  52.448
77344W        W69268  35.716   1.774  49.678
77345W        W69269  19.243  30.731  50.149
77346W        W69270  18.230  41.210  50.613
77347W        W69271  31.206   6.766  50.578
77348W        W69272  47.221  12.238  53.322
77349W        W69273  12.251   4.286  53.336
77350W        W69274  44.683   8.765  49.699
77351W        W69275  13.239   4.744  50.589
77352W        W69276  45.675  45.691  51.976
77353W        W69277  13.734   4.280  50.579
77354W        W69278  41.230  15.241  50.618
77355W        W69279  40.191  37.721  50.134
77356W        W69280  25.241  41.224  49.679
77357W        W69281  44.695   7.746  51.961
77358W        W69282  27.729  43.704  49.674
77359W        W69283  40.708  20.757  53.320
77360W        W69284  47.221   8.258  52.405
77361W        W69285  17.231  26.246  52.446
77362W        W69286  34.198   1.251  49.696
77363W        W69287  13.270  46.185  52.419
77364W        W69288  17.721   2.791  53.779
77365W        W69289  32.743   7.746  52.424
77366W        W69290  37.223  22.722  50.154
77367W        W69291   7.747  34.722  52.413
77368W        W69292  20.252  29.749  51.514
77369W        W69293  32.701  39.233  50.578
77370W        W69294  11.267  45.180  51.506
77371W        W69295  38.732  19.254  50.164
77372W        W69296  48.201  34.701  53.351
77373W        W69297  42.210   6.740  51.492
77374W        W69298  45.221  39.215  49.677
77375W        W69299  37.705   8.284  52.433
77376W        W69300  13.270   9.773  53.345
77377W        W69301   3.268   7.771  53.773
77378W        W69302  46.218  21.219  52.867
77379W        W69303  42.723  39.699  53.357
77380W        W69304  35.692  40.217  51.965
77381W        W69305  26.244   9.735  52.438
77382W        W69306  26.710  44.689  52.423
77383W        W69307  25.722   8.242  51.950
77384W        W69308   9.241   5.272  53.335
77385W        W69309  41.698  14.773  49.698
77386W        W69310  19.765  10.241  52.407
77387W        W69311   7.786  33.231  53.321
77388W        W69312   6.787  21.257  52.425
77389W        W69313   0.757  13.727  50.593
77390W        W69314   0.256  45.201  49.704
77391W        W69315  32.704  37.224  51.492
77392W        W69316  18.768  38.224  52.880
77393W        W69317  11.731  16.767  52.407
77394W        W69318   3.762  16.230  53.335
77395W        W69319  38.704   3.291  50.607
77396W        W69320  27.751  11.771  51.039
77397W        W69321  20.222  14.237  51.047
77398W        W69322  40.722   7.282  51.508
77399W        W69323   4.789  17.768  51.985
77400W        W69324   4.290  33.236  53.788
77401W        W69325   2.259  26.251  51.990
77402W        W69326  17.737  31.711  50.605
77403W        W69327  16.272   5.242  50.147
77404W        W69328  30.747  46.199  53.332
77405W        W69329  41.188  25.217  51.520
77406W        W69330  44.702  27.216  49.709
77407W        W69331  35.712  14.736  53.356
77408W        W69332  40.231  18.220  52.440
77409W        W69333  13.261  20.238  53.797
77410W        W69334   7.270  13.739  51.990
77411W        W69335   0.262   3.782  51.515
77412W        W69336  45.679   4.747  50.620
77413W        W69337  44.700   5.242  49.701
77414W        W69338  12.770  42.196  51.037
77415W        W69339  19.738  17.246  52.442
77416W        W69340   7.783  17.232  50.164
77417W        W69341   7.755   6.768  50.131
77418W        W69342  29.247   4.785  50.612
77419W        W69343   5.263   5.288  52.882
77420W        W69344  29.218  21.727  53.811
77421W        W69345   7.260   5.755  53.780
77422W        W69346  31.243  11.277  52.869
77423W        W69347  26.250  34.194  50.612
77424W        W69348  42.200  11.280  49.688
77425W        W69349   1.795  28.707  49.684
77426W        W69350  43.697  31.241  51.056
77427W        W69351   4.767  18.720  50.594
77428W        W69352  14.775  38.703  53.807
77429W        W69353  32.735  34.200  51.534
77430W        W69354   1.750  23.251  52.421
77431W        W69355  35.217  38.228  51.077
77432W        W69356  19.758  11.767  51.957
77433W        W69357  10.751  43.215  52.888
77434W        W69358   0.781  22.713  53.357
77435W        W69359  18.258  22.720  50.578
77436W        W69360   5.785  42.694  50.162
77437W        W69361   7.775  17.723  50.137
77438W        W69362  30.709   7.738  51.952
77439W        W69363  33.240  20.265  52.440
77440W        W69364   3.271  13.262  49.665
77441W        W69365  23.257  45.691  50.586
77442W        W69366   5.782  18.759  49.682
77443W        W69367   5.750  33.219  53.778
77444W        W69368  32.731   9.246  49.679
77445W        W69369   3.791  25.753  49.691
77446W        W69370   3.263  16.243  53.360
77447W        W69371  35.727  33.214  49.705
77448W        W69372  20.722  22.760  50.128
77449W        W69373  43.180  35.706  50.595
77450W        W69374  12.251   6.253  53.330
77451W        W69375  33.743  30.712  50.610
77452W        W69376  38.689   9.763  53.816
77453W        W69377  26.714   9.241  52.421
77454W        W69378  48.195  20.241  49.702
77455W        W69379  17.761   1.285  49.678
77456W        W69380  15.735  48.175  49.673
77457W        W69381   5.270   6.252  51.512
77458W        W69382  16.255  45.220  50.160
77459W        W69383   3.275  29.750  53.796
77460W        W69384   0.256   7.275  49.666
77461W        W69385  17.745  42.197  51.987
77462W        W69386  22.261  33.225  51.966
77463W        W69387  45.180   1.280  52.426
77464W        W69388   5.258  38.709  51.509
77465W        W69389   2.265   5.275  51.069
77466W        W69390  44.203  27.249  53.795
77467W        W69391   0.786   8.242  50.591
77468W        W69392  21.724  47.693  51.992
77469W        W69393   6.757  44.712  49.704
77470W        W69394   2.764  48.213  50.603
77471W        W69395  22.740  46.202  50.581
77472W        W69396  34.197   2.774  53.814
77473W        W69397  20.256  23.752  51.510
77474W        W69398  25.220  22.748  52.413
77475W        W69399  11.778  28.236  50.158
77476W        W69400  12.234  30.238  52.871
77477W        W69401  29.240  41.718  53.791
77478W        W69402  47.721  40.706  53.329
77479W        W69403  39.714   8.263  50.135
77480W        W69404   5.290   4.766  49.666
77481W        W69405  44.208  35.233  49.679
77482W        W69406   6.244   6.275  52.406
77483W        W69407  17.234  18.728  52.427
77484W        W69408  10.738  36.237  52.446
77485W        W69409  15.770  30.704  51.975
77486W        W69410  12.759  24.742  53.348
77487W        W69411  22.229  19.261  53.805
77488W        W69412  40.186   8.757  50.595
77489W        W69413  40.188  28.713  52.897
77490W        W69414  17.759  21.741  50.159
77491W        W69415  37.701  19.229  51.970
77492W        W69416   2.791  47.695  53.322
77493W        W69417  12.766   2.252  51.520
77494W        W69418  30.747  21.247  53.338
77495W        W69419  40.229  22.237  50.593
77496W        W69420   0.792  17.770  51.991
77497W        W69421  24.240  11.773  50.135
77498W        W69422  44.212  13.774  50.121
77499W        W69423  14.254  32.700  52.437
77500W        W69424  34.741  21.254  51.968
77501W        W69425  23.225  13.253  50.620
77502W        W69426  47.707   0.250  52.903
77503W        W69427   7.783  14.733  52.440
77504W        W69428  38.188  47.702  51.492
77505W        W69429  44.696  13.267  52.409
77506W        W69430   8.286  26.217  51.530
77507W        W69431  44.717  23.738  49.706
77508W        W69432   3.252  35.722  50.591
77509W        W69433   9.760  46.714  49.673
77510W        W69434   2.771  17.256  51.034
77511W        W69435   9.775  10.748  52.903
77512W        W69436  16.736   0.752  50.608
77513W        W69437   9.737  43.683  52.877
77514W        W69438   3.776  20.755  50.164
77515W        W69439  28.214  17.724  50.595
77516W        W69440  28.738  26.229  49.665
77517W        W69441  31.224  19.222  51.522
77518W        W69442  43.202   7.249  49.681
77519W        W69443  15.749  31.218  50.605
77520W        W69444  12.251  46.184  53.321
77521W        W69445  31.732  14.251  50.605
77522W        W69446  42.725  39.219  50.128
77523W        W69447  24.756  38.216  50.592
77524W        W69448  32.220  30.219  49.691
77525W        W69449  27.722  31.240  50.155
77526W        W69450  40.696  11.746  49.691
77527W        W69451   8.740   7.276  50.159
77528W        W69452   3.290  36.695  53.323
77529W        W69453  17.233   6.742  51.983
77530W        W69454  37.199  14.274  52.422
77531W        W69455   3.257  12.256  51.049
77532W        W69456   6.753  38.189  51.076
77533W        W69457   4.285  38.711  53.809
77534W        W69458   6.744  35.723  53.356
77535W        W69459   4.247  48.193  49.675
77536W        W69460   9.243  21.262  50.588
77537W        W69461   0.785   4.278  51.061
77538W        W69462  38.220  35.227  52.877
77539W        W69463  24.745  36.234  51.978
77540W        W69464  33.735  26.729  51.075
77541W        W69465  19.737  35.221  53.800
77542W        W69466  11.249   7.759  49.668
77543W        W69467  42.723  16.761  52.894
77544W        W69468   2.273   4.773  53.318
77545W        W69469   5.277  45.214  52.882
77546W        W69470  12.274  43.723  50.616
77547W        W69471  16.772  27.248  51.045
77548W        W69472  30.231  46.178  51.533
77549W        W69473  43.219  19.740  50.606
77550W        W69474  22.739   0.780  51.056
77551W        W69475  22.239  45.222  53.798
77552W        W69476  24.235  28.224  52.439
77553W        W69477  19.747  47.207  53.337
77554W        W69478  32.221  25.737  53.774
77555W        W69479  38.699  47.216  51.076
77556W        W69480   6.784  34.725  53.810
77557W        W69481  39.232  47.190  51.959
77558W        W69482  11.257  17.728  52.888
77559W        W69483  23.235  11.244  53.339
77560W        W69484  43.194   7.747  53.806
77561W        W69485  13.263  47.693  50.615
77562W        W69486  10.263  34.237  49.683
77563W        W69487   4.283  17.247  52.447
77564W        W69488  39.186  18.732  50.141
77565W        W69489  31.245   4.258  53.814
77566W        W69490  48.173   1.285  52.403
77567W        W69491   1.283   3.792  49.677
77568W        W69492  21.259  36.690  53.790
77569W        W69493  44.210  26.752  50.133
77570W        W69494  29.721  32.697  50.601
77571W        W69495  12.253  40.206  51.078
77572W        W69496  13.260  45.716  53.345
77573W        W69497  17.769   9.769  51.527
77574W        W69498  35.716  28.752  52.425
77575W        W69499  19.240  31.224  53.333
77576W        W69500  42.713  44.691  51.952
77577W        W69501   7.760  22.742  51.047
77578W        W69502   6.770  26.210  50.160
77579W        W69503  30.707   3.791  51.079
77580W        W69504   0.273  19.258  50.157
77581W        W69505  46.205  36.235  52.412
77582W        W69506  43.728  14.243  53.361
77583W        W69507  43.695  38.712  51.036
77584W        W69508  22.227  47.688  51.077
77585W        W69509  45.194  13.262  49.689
77586W        W69510  18.743  32.716  51.511
77587W        W69511  24.251  18.720  52.429
77588W        W69512   1.782  21.762  51.065
77589W        W69513  35.724  19.234  51.498
77590W        W69514  13.763  43.700  49.676
77591W        W69515  45.692   3.279  53.352
77592W        W69516  43.189   0.255  51.983
77593W        W69517  20.238  35.729  51.987
77594W        W69518  20.726   3.263  53.800
77595W        W69519  39.718   3.767  52.419
77596W        W69520  12.758  34.703  51.956
77597W        W69521  21.229  11.747  51.040
77598W        W69522  15.752  21.250  52.429
77599W        W69523  15.772   6.773  51.991
77600W        W69524  24.213  25.219  53.344
77601W        W69525  17.768  39.698  50.608
77602W        W69526  41.720  33.233  53.345
77603W        W69527  16.769   5.251  51.497
77604W        W69528  17.231  43.191  49.702
77605W        W69529  44.193  28.233  53.796
77606W        W69530   3.780  37.708  51.508
77607W        W69531  41.184   4.788  50.609
77608W        W69532  47.684   3.286  53.785
77609W        W69533   4.746  41.718  52.870
77610W        W69534  18.245  36.216  53.355
77611W        W69535  30.216  23.745  50.586
77612W        W69536  37.729   2.252  51.975
77613W        W69537  41.211   7.284  51.052
77614W        W69538  30.734  13.756  51.965
77615W        W69539  36.692  44.199  49.688
77616W        W69540   8.781  28.734  51.509
77617W        W69541  25.240   7.761  53.809
77618W        W69542  18.765   3.249  52.424
77619W        W69543  15.264  20.726  52.417
77620W        W69544  39.229  46.698  50.584
77621W        W69545  28.242  19.246  50.151
77622W        W69546  33.717  15.240  51.987
77623W        W69547   9.748  24.223  53.810
77624W        W69548   2.265  26.249  53.803
77625W        W69549  43.228  12.734  53.326
77626W        W69550   0.277  27.745  53.789
77627W        W69551  22.235  40.708  52.428
77628W        W69552  46.679   5.779  51.523
77629W        W69553  18.761  35.231  51.527
77630W        W69554   3.256  10.244  53.342
77631W        W69555   5.760  30.224  51.040
77632W        W69556  35.704  24.247  51.991
77633W        W69557  16.233  41.703  50.614
77634W        W69558  21.227  37.696  51.533
77635W        W69559  14.262  33.214  50.158
77636W        W69560  21.229  41.224  52.432
77637W        W69561   4.278  41.691  51.535
77638W        W69562  24.242   9.249  53.322
77639W        W69563  24.240  48.191  49.709
77640W        W69564   3.788  12.746  52.441
77641W        W69565   9.775  26.221  51.991
77642W        W69566  33.213  26.724  52.429
77643W        W69567   3.772  25.755  51.040
77644W        W69568  38.694  42.710  51.510
77645W        W69569   6.276  12.735  53.345
77646W        W69570  23.757  46.209  49.693
77647W        W69571   9.237  38.198  52.410
77648W        W69572  20.733  31.731  49.707
77649W        W69573  38.198  21.753  52.440
77650W        W69574   7.282   9.744  50.615
77651W        W69575  23.246  26.215  53.324
77652W        W69576  36.715  27.723  51.079
77653W        W69577  41.227  46.217  49.673
77654W        W69578  24.236  39.212  52.443
77655W        W69579  11.271  11.752  51.065
77656W        W69580  24.248  16.236  51.076
77657W        W69581   6.242  22.729  50.135
77658W        W69582  39.211  20.745  51.508
77659W        W69583   0.257  12.238  49.679
77660W        W69584  23.735  33.233  53.321
77661W        W69585  32.720   6.761  49.676
77662W        W69586  31.236  27.211  51.075
77663W        W69587  23.219   4.267  51.513
77664W        W69588  23.226   4.781  51.048
77665W        W69589  44.687  42.185  51.951
77666W        W69590  48.173   0.288  53.341
77667W        W69591   4.774  16.264  52.895
77668W        W69592  32.238  14.246  50.128
77669W        W69593  33.218  27.234  53.319
77670W        W69594  25.708  36.214  50.163
77671W        W69595  17.251  25.742  53.810
77672W        W69596  11.255  15.756  53.351
77673W        W69597  28.737  18.722  52.426
77674W        W69598  41.185   7.282  50.128
77675W        W69599   2.763  30.745  50.592
77676W        W69600  46.704   3.290  51.987
77677W        W69601  44.684   3.789  52.896
77678W        W69602  47.690  25.213  51.513
77679W        W69603   5.755   9.259  52.426
77680W        W69604  37.219   9.776  53.319
77681W        W69605   6.779  21.235  49.699
77682W        W69606  21.728  35.201  52.423
77683W        W69607  45.177   1.770  53.332
77684W        W69608  39.715  32.738  49.700
77685W        W69609  27.234  18.261  53.352
77686W        W69610  22.228   9.283  53.343
77687W        W69611  47.217  30.217  51.984
77688W        W69612  28.730   5.267  50.618
77689W        W69613  47.207  14.248  50.134
77690W        W69614   6.253  42.224  49.674
77691W        W69615  20.757   0.279  52.445
77692W        W69616   4.770  32.215  49.671
77693W        W69617  32.211  27.735  53.812
77694W        W69618  34.220  26.728  51.974
77695W        W69619  43.194  37.716  53.347
77696W        W69620  31.245  40.712  52.438
77697W        W69621  25.753  21.226  50.130
77698W        W69622  19.258  30.722  51.511
77699W        W69623   2.291   1.763  53.811
77700W        W69624  26.726   5.267  50.138
77701W        W69625   4.288  41.693  52.892
77702W        W69626  28.730  43.188  50.592
77703W        W69627  23.245   9.268  50.163
77704W        W69628  15.737  35.731  50.616
77705W        W69629  40.711  34.737  53.317
77706W        W69630   7.241   9.778  51.060
77707W        W69631  44.214  18.261  50.602
77708W        W69632  40.716  31.215  51.988
77709W        W69633  38.710  30.718  50.609
77710W        W69634  21.258   7.280  50.620
77711W        W69635  32.701  45.677  53.324
77712W        W69636   7.250  40.730  51.966
77713W        W69637  11.768   8.265  51.049
77714W        W69638  29.208   2.751  53.799
77715W        W69639   1.264  48.216  53.787
77716W        W69640  29.723  44.679  51.968
77717W        W69641  14.738  24.250  50.145
77718W        W69642  39.188   6.250  52.448
77719W        W69643  11.251  12.739  51.060
77720W        W69644  29.235  19.756  52.414
77721W        W69645  10.769  38.703  52.879
77722W        W69646   6.761  34.714  50.123
77723W        W69647  39.214  44.182  50.618
77724W        W69648  39.719  42.688  52.415
77725W        W69649  40.687  41.202  52.864
77726W        W69650   2.273  43.684  53.809
77727W        W69651  16.246  18.228  50.134
77728W        W69652  42.694  44.208  50.129
77729W        W69653  46.191  11.278  53.332
77730W        W69654  23.760   6.771  52.416
77731W        W69655   3.790  10.239  51.533
77732W        W69656   3.773  18.766  49.708
77733W        W69657  34.208  37.731  50.141
77734W        W69658  15.259   8.261  52.869
77735W        W69659  35.237  40.708  53.773
77736W        W69660  11.759  20.225  53.358
77737W        W69661  18.732  15.245  49.699
77738W        W69662  27.247  46.710  53.808
77739W        W69663  46.721  30.720  53.805
77740W        W69664  16.759  37.722  51.043
77741W        W69665   1.263  23.251  52.426
77742W        W69666   6.252  26.751  51.501
77743W        W69667  46.186  10.269  52.440
77744W        W69668  45.176  41.222  53.775
77745W        W69669  21.736   9.279  53.350
77746W        W69670   7.755  18.243  50.139
77747W        W69671  46.695  29.726  53.356
77748W        W69672  37.733  31.236  53.361
77749W        W69673  35.704  26.716  49.672
77750W        W69674  35.726  14.251  50.147
77751W        W69675  30.250  28.239  50.130
77752W        W69676   1.265  23.740  51.956
77753W        W69677  30.233  16.743  50.619
77754W        W69678  36.739   6.268  52.863
77755W        W69679  12.758  26.719  49.705
77756W        W69680  45.688  15.732  52.434
77757W        W69681  18.756  22.759  51.491
77758W        W69682  14.736  23.229  51.530
77759W        W69683  26.238  22.220  50.138
77760W        W69684  47.216   9.780  50.159
77761W        W69685  27.717  46.183  51.064
77762W        W69686  34.211   0.789  50.139
77763W        W69687  20.754  17.743  50.163
77764W        W69688  38.219  37.690  52.436
77765W        W69689  38.200  27.710  50.619
77766W        W69690  44.200  32.232  49.669
77767W        W69691  25.221  39.200  53.814
77768W        W69692   6.283  38.724  52.446
77769W        W69693  18.765  42.193  50.144
77770W        W69694  15.263  33.735  51.510
77771W        W69695  12.737  30.743  51.985
77772W        W69696  14.259  22.747  51.040
77773W        W69697  18.234  16.231  51.989
77774W        W69698  44.183  40.218  52.895
77775W        W69699   1.762  26.221  51.987
77776W        W69700  26.723  36.707  51.970
77777W        W69701  34.240   2.785  49.686
77778W        W69702  23.750   6.289  53.786
77779W        W69703  12.733  28.705  53.779
77780W        W69704  41.198   2.251  53.326
77781W        W69705   8.758  27.721  52.882
77782W        W69706  11.778  20.764  51.531
77783W        W69707  46.676  45.686  51.045
77784W        W69708  30.710  10.270  52.883
77785W        W69709   2.293  34.240  50.129
77786W        W69710  34.212   1.289  51.961
77787W        W69711  42.716  41.702  51.535
77788W        W69712  35.211  43.682  53.330
77789W        W69713  32.727  26.719  51.506
77790W        W69714  15.251  41.220  50.140
77791W        W69715  34.196   6.251  50.145
77792W        W69716  18.729  37.703  51.517
77793W        W69717   5.267  15.767  51.532
77794W        W69718  26.217   6.770  52.423
77795W        W69719   5.247  42.693  50.619
77796W        W69720  42.203   7.240  50.603
77797W        W69721  33.245  45.180  51.503
77798W        W69722   6.249  15.754  52.891
77799W        W69723  24.747  42.189  52.894
77800W        W69724  36.696  15.229  53.810
77801W        W69725  19.764  28.219  53.340
77802W        W69726  47.717   8.785  51.521
77803W        W69727  29.224  45.191  52.869
77804W        W69728  47.698  12.258  51.969
77805W        W69729   0.756  20.247  53.336
77806W        W69730   7.752  34.232  51.519
77807W        W69731  35.692  46.676  52.876
77808W        W69732  38.200  37.699  52.885
77809W        W69733  21.249   0.790  53.354
77810W        W69734   7.780  17.254  50.602
77811W        W69735  25.250  37.219  51.501
77812W        W69736  32.703  19.751  52.408
77813W        W69737  40.718  26.748  49.683
77814W        W69738  41.197   9.235  53.817
77815W        W69739   2.288  27.232  50.155
77816W        W69740  33.715  13.740  53.324
77817W        W69741  13.236   9.767  50.160
77818W        W69742   1.287   1.251  49.676
77819W        W69743  31.715  30.745  50.622
77820W        W69744  45.681  34.703  50.578
77821W        W69745  46.685  25.211  51.979
77822W        W69746  45.693   4.764  49.681
77823W        W69747  21.254  26.731  51.962
77824W        W69748  33.227  39.715  53.342
77825W        W69749  15.244   3.292  51.508
77826W        W69750   9.750   3.287  49.695
77827W        W69751  37.203  11.765  53.317
77828W        W69752  29.209  44.725  53.792
77829W        W69753   6.756  39.725  51.053
77830W        W69754  31.217  27.222  53.343
77831W        W69755  40.232  24.741  53.337
77832W        W69756  38.729  45.701  49.706
77833W        W69757  39.204  15.748  51.516
77834W        W69758  44.189  37.192  52.884
77835W        W69759  40.192  13.768  50.612
77836W        W69760   6.751  47.182  53.794
77837W        W69761  36.719  13.255  49.666
77838W        W69762  30.228  37.189  51.510
77839W        W69763   5.243  34.241  53.335
77840W        W69764  44.677  26.725  50.154
77841W        W69765  35.710  19.267  53.803
77842W        W69766  21.231  26.715  51.527
77843W        W69767  16.752  11.261  51.975
77844W        W69768  30.736  35.218  51.501
77845W        W69769  21.740  18.237  50.135
77846W        W69770  22.733  17.749  53.785
77847W        W69771  12.762  13.258  51.071
77848W        W69772  23.247  35.712  51.975
77849W        W69773  36.721  37.736  51.049
77850W        W69774  29.216  43.721  50.130
77851W        W69775  34.733  20.764  53.781
77852W        W69776  38.718   4.750  50.134
77853W        W69777  41.700  26.216  53.815
77854W        W69778  46.203  21.744  51.519
77855W        W69779  13.738   6.749  49.693
77856W        W69780  33.205  10.765  53.799
77857W        W69781   7.774   5.276  51.493
77858W        W69782  47.679  27.708  51.513
77859W        W69783   6.787  30.217  50.585
77860W        W69784  28.205  23.214  51.062
77861W        W69785  19.248  31.238  51.037
77862W        W69786  12.734  32.203  51.953
77863W        W69787  32.711  29.222  51.970
77864W        W69788  15.251  43.225  53.331
77865W        W69789  21.747   3.276  53.348
77866W        W69790  26.714   6.757  52.447
77867W        W69791  43.699  44.713  53.359
77868W        W69792   7.761  32.234  51.504
77869W        W69793  33.198  34.214  51.501
77870W        W69794  11.274   4.764  51.066
77871W        W69795  47.212  48.207  51.527
77872W        W69796  47.708  24.718  50.614
77873W        W69797  31.241   4.788  49.673
77874W        W69798  29.709  34.706  52.899
77875W        W69799  18.268  12.249  52.904
77876W        W69800  45.722   9.775  53.808
77877W        W69801  32.717  14.742  51.964
77878W        W69802  40.702  29.701  51.068
77879W        W69803  41.213  41.200  52.868
77880W        W69804  23.747  47.206  51.045
77881W        W69805  32.235  12.749  51.044
77882W        W69806  44.681  14.275  51.502
77883W        W69807   8.782  13.747  53.794
77884W        W69808   2.770  31.242  49.709
77885W        W69809  30.243  46.179  52.439
77886W        W69810  47.687  41.716  52.903
77887W        W69811  16.730  19.761  52.422
77888W        W69812  23.744  16.225  51.072
77889W        W69813  44.183  15.744  50.606
77890W        W69814   3.769  47.677  49.700
77891W        W69815   3.265  38.699  53.792
77892W        W69816  19.738   5.764  51.036
77893W        W69817  34.723   0.793  52.428
77894W        W69818  32.247  32.241  53.789
77895W        W69819  17.232  37.722  51.508
77896W        W69820   0.750  42.218  51.046
77897W        W69821  23.232   8.243  51.960
77898W        W69822  38.695  16.251  49.702
77899W        W69823   2.268  45.712  51.959
77900W        W69824  47.172  16.251  50.146
77901W        W69825  11.232   7.768  52.898
77902W        W69826  25.242  11.740  50.605
77903W        W69827  41.200  10.250  51.073
77904W        W69828  13.767  36.696  51.047
77905W        W69829   6.788  14.233  50.601
77906W        W69830  39.686  44.226  53.779
77907W        W69831  33.708  36.230  52.432
77908W        W69832  39.693  45.182  52.436
77909W        W69833   9.274  14.773  50.612
77910W        W69834  38.723  45.677  53.811
77911W        W69835  21.752  39.698  52.433
77912W        W69836   6.761  25.746  51.044
77913W        W69837  21.259  43.191  51.951
77914W        W69838  40.205   5.784  50.600
77915W        W69839  19.724  17.264  49.705
77916W        W69840  42.181  11.255  50.584
77917W        W69841  48.207  19.253  51.990
77918W        W69842  45.186  46.688  52.434
77919W        W69843  23.251  46.188  53.815
77920W        W69844  10.273   5.787  51.964
77921W        W69845   1.779  20.238  51.976
77922W        W69846  43.714  41.690  50.126
77923W        W69847   1.757  40.206  51.987
77924W        W69848  43.204   1.768  50.621
77925W        W69849  27.254  37.227  52.859
77926W        W69850  14.255  24.725  53.330
77927W        W69851   1.275  24.230  53.335
77928W        W69852  25.726  35.233  50.605
77929W        W69853  21.739  39.701  53.812
77930W        W69854  21.247   0.778  50.150
77931W        W69855   8.269  30.216  52.898
77932W        W69856  41.683  33.229  51.959
77933W        W69857  12.239  18.750  53.349
77934W        W69858  37.227  19.748  52.883
77935W        W69859  31.209  16.242  51.069
77936W        W69860  48.185  25.243  51.988
77937W        W69861  20.237  15.761  49.678
77938W        W69862  24.756  19.268  49.704
77939W        W69863   5.785  32.710  53.356
77940W        W69864  45.202  21.761  50.146
77941W        W69865  31.203   6.783  50.166
77942W        W69866  27.728  28.217  52.864
77943W        W69867   7.276  21.714  52.898
77944W        W69868   3.273   9.764  51.990
77945W        W69869  15.756  20.727  50.124
77946W        W69870  27.735  35.692  53.810
77947W        W69871  40.697  19.221  53.800
77948W        W69872   3.785  23.713  49.690
77949W        W69873  17.243  30.243  52.428
77950W        W69874  46.181  36.211  50.610
77951W        W69875  32.227  38.727  49.701
77952W        W69876   8.278  25.734  53.790
77953W        W69877  29.708  12.751  51.491
77954W        W69878  44.706  44.701  50.600
77955W        W69879  35.227  23.236  50.126
77956W        W69880  33.223  47.199  50.159
77957W        W69881   5.774   1.266  50.589
77958W        W69882  20.750  48.215  50.157
77959W        W69883  32.737  32.710  52.443
77960W        W69884  42.208  26.229  51.504
77961W        W69885  46.718  22.242  51.533
77962W        W69886   7.259  20.759  51.956
77963W        W69887  38.198  29.237  51.035
77964W        W69888  29.721  18.267  51.975
77965W        W69889   7.744  13.240  53.806
77966W        W69890  36.732   7.738  49.680
77967W        W69891   3.757   1.776  49.667
77968W        W69892  45.204  41.682  49.697
77969W        W69893  34.226  26.255  51.078
77970W        W69894  29.238  38.698  51.074
77971W        W69895  23.260   1.285  52.860
77972W        W69896  21.733   6.254  51.059
77973W        W69897  28.227   5.250  51.504
77974W        W69898  23.215  16.771  52.887
77975W        W69899  29.709  15.725  53.805
77976W        W69900  28.227  26.735  51.062
77977W        W69901  35.728  18.236  49.671
77978W        W69902   8.256  38.691  51.502
77979W        W69903  14.259  42.226  53.357
77980W        W69904   3.255  26.243  51.992
77981W        W69905  16.752  34.216  52.887
77982W        W69906   1.764  24.215  52.429
77983W        W69907  36.738  36.193  49.708
77984W        W69908  29.746  15.236  52.879
77985W        W69909  22.726  24.212  53.347
77986W        W69910  37.730  21.755  52.412
77987W        W69911  13.243  29.709  49.680
77988W        W69912  44.193  25.739  53.339
77989W        W69913  20.725  35.711  52.868
77990W        W69914  12.752  28.703  51.977
77991W        W69915  41.204  10.267  52.420
77992W        W69916  41.681  30.711  53.350
77993W        W69917  10.735  25.245  50.165
77994W        W69918  17.242  21.762  53.327
77995W        W69919  21.225  29.744  50.148
77996W        W69920  25.220   6.250  52.409
77997W        W69921  30.714  35.700  51.978
77998W        W69922  45.219   3.791  53.334
77999W        W69923   0.754  29.743  51.985
78000W        W69924  47.215  43.224  53.790
78001W        W69925  14.269  40.688  51.979
78002W        W69926  25.734   2.784  49.704
78003W        W69927  25.741   2.257  49.666
78004W        W69928   2.756   2.761  51.985
78005W        W69929   0.784  20.731  53.318
78006W        W69930  48.209  37.200  51.980
78007W        W69931  13.274  29.244  51.985
78008W        W69932  16.247   5.784  53.805
78009W        W69933  35.231  47.692  50.133
78010W        W69934   5.776  46.174  53.792
78011W        W69935  19.232   6.740  53.789
78012W        W69936  28.211  23.727  51.948
78013W        W69937   3.276  43.725  53.804
78014W        W69938  15.242  28.234  51.533
78015W        W69939   2.749  32.699  50.605
78016W        W69940  31.216  43.704  53.817
78017W        W69941  11.734  13.764  51.521
78018W        W69942  38.233   6.747  51.496
78019W        W69943  32.708  47.707  50.588
78020W        W69944   7.277   7.259  50.161
78021W        W69945   2.795  13.235  51.490
78022W        W69946   5.257  39.190  50.127
78023W        W69947  24.211  16.757  49.705
78024W        W69948  40.187  23.741  53.811
78025W        W69949  25.220  18.259  53.787
78026W        W69950  32.721  48.201  53.328
78027W        W69951  44.212  42.198  50.603
78028W        W69952  10.250  34.227  52.408
78029W        W69953  12.238   0.778  52.415
78030W        W69954  23.253  40.717  50.610
78031W        W69955  38.722   1.268  51.072
78032W        W69956   2.289  28.219  50.127
78033W        W69957  30.715  25.753  51.042
78034W        W69958   1.261  38.729  51.056
78035W        W69959  18.232  20.726  49.683
78036W        W69960  42.686   8.757  50.591
78037W        W69961  45.207  26.708  52.448
78038W        W69962  32.706  26.708  51.952
78039W        W69963  40.713   9.276  51.045
78040W        W69964  25.248  29.208  49.681
78041W        W69965  25.715  29.232  53.774
78042W        W69966  43.196   2.248  50.584
78043W        W69967  34.708  47.721  53.350
78044W        W69968  45.184  20.247  52.872
78045W        W69969  26.751  31.215  50.150
78046W        W69970  29.702  38.193  51.954
78047W        W69971  14.753   6.761  49.706
78048W        W69972  44.682  48.214  51.979
78049W        W69973  14.268  22.251  52.431
78050W        W69974  23.241  18.227  51.533
78051W        W69975  22.741  26.733  51.497
78052W        W69976  38.736  36.213  50.593
78053W        W69977  30.231  25.228  50.147
78054W        W69978  35.700  26.743  52.884
78055W        W69979  46.678  45.695  53.327
78056W        W69980   6.782  23.754  49.691
78057W        W69981  10.772  31.206  51.046
78058W        W69982  25.732  33.737  53.360
78059W        W69983  42.218  20.217  51.987
78060W        W69984  20.224   4.265  51.037
78061W        W69985  30.224  42.201  50.612
78062W        W69986  26.709  28.708  49.681
78063W        W69987  27.220  14.765  50.589
78064W        W69988  36.735  42.680  53.798
78065W        W69989  33.701  32.704  53.783
78066W        W69990  24.243  21.723  51.962
78067W        W69991   2.256   2.248  52.442
78068W        W69992  37.727  41.228  49.674
78069W        W69993  33.731   5.262  51.509
78070W        W69994  14.253  43.709  53.345
78071W        W69995  25.730  46.175  50.597
78072W        W69996  23.233  43.704  52.434
78073W        W69997   2.773  15.232  51.956
78074W        W69998  43.709  10.760  51.508
78075W        W69999   3.279  16.264  50.148
78076W        W70000   1.256  19.736  51.966
78077W        W70001   1.783  16.256  53.793
78078W        W70002  33.716  16.771  52.448
78079W        W70003  11.760  27.744  53.322
78080W        W70004  37.689  28.238  51.970
78081W        W70005  40.198  18.763  53.802
78082W        W70006  11.261  17.729  52.437
78083W        W70007  46.688  25.222  52.881
78084W        W70008  39.690  43.693  53.801
78085W        W70009   2.276  46.182  53.785
78086W        W70010  19.263  19.759  49.701
78087W        W70011  41.188  21.753  52.875
78088W        W70012  19.267  17.726  51.954
78089W        W70013   3.289  26.735  51.078
78090W        W70014  10.734  35.213  52.442
78091W        W70015  30.747  21.750  52.441
78092W        W70016  11.751  25.751  53.809
78093W        W70017  25.257  34.726  52.904
78094W        W70018  30.707  26.744  51.065
78095W        W70019   7.241   3.777  52.895
78096W        W70020  26.746  37.726  50.621
78097W        W70021  12.262  39.228  49.689
78098W        W70022   6.287   7.747  50.144
78099W        W70023  14.276  18.747  51.512
78100W        W70024  38.719  33.210  49.673
78101W        W70025  26.230  43.681  52.877
78102W        W70026  11.257   1.778  53.323
78103W        W70027  28.212  44.691  51.958
78104W        W70028  10.777   9.774  50.582
78105W        W70029   0.252  43.719  51.492
78106W        W70030  45.221  31.728  50.153
78107W        W70031  30.730  40.690  51.967
78108W        W70032   2.276  47.174  53.341
78109W        W70033  30.740  11.762  53.335
78110W        W70034   0.758  27.243  49.687
78111W        W70035  16.235  15.764  49.669
78112W        W70036  37.702   8.271  51.060
78113W        W70037  14.251  31.205  51.964
78114W        W70038   3.771  15.249  52.887
78115W        W70039  15.739   7.784  51.528
78116W        W70040  25.708  40.725  53.352
78117W        W70041  22.249  30.220  52.444
78118W        W70042   1.272  28.246  50.131
78119W        W70043  11.263  46.209  51.957
78120W        W70044  15.272   8.758  50.584
78121W        W70045  38.226  16.227  53.343
78122W        W70046   2.773  30.211  50.160
78123W        W70047  20.251  28.205  50.142
78124W        W70048   1.780  47.711  53.773
78125W        W70049  32.220   9.759  53.318
78126W        W70050  33.200   5.757  50.124
78127W        W70051  26.743   8.268  49.683
78128W        W70052  13.248  45.202  51.534
78129W        W70053  22.219   7.744  50.142
78130W        W70054  34.735  40.186  53.790
78131W        W70055   5.748   9.279  51.079
78132W        W70056   1.791  38.232  50.588
78133W        W70057   0.776  40.189  52.875
78134W        W70058  38.222   8.264  51.504
78135W        W70059  30.720  26.228  50.159
78136W        W70060  16.755  40.217  52.410
78137W        W70061  43.222  42.222  50.604
78138W        W70062  31.732  41.204  51.502
78139W        W70063   4.269  19.755  51.988
78140W        W70064   2.295  37.215  50.147
78141W        W70065  37.236  43.213  50.134
78142W        W70066  27.231  13.759  52.889
78143W        W70067  44.210  40.219  50.620
78144W        W70068  42.199  33.735  52.869
78145W        W70069  19.219  30.218  51.988
78146W        W70070  37.730  42.717  50.157
78147W        W70071  48.176   4.771  53.804
78148W        W70072  19.727  19.737  53.340
78149W        W70073   6.743  21.253  51.035
78150W        W70074  41.217  33.219  50.592
78151W        W70075  43.224  45.713  49.665
78152W        W70076  23.723   0.278  49.705
78153W        W70077   3.774  10.756  50.611
78154W        W70078  13.753   2.259  51.532
78155W        W70079  35.692  19.233  50.585
78156W        W70080  13.757   5.781  52.902
78157W        W70081  36.191  33.702  53.350
78158W        W70082  14.246  18.247  51.518
78159W        W70083  44.189  47.197  50.151
78160W        W70084  30.730  19.732  50.581
78161W        W70085  19.739  22.228  51.974
78162W        W70086  18.755  10.751  51.052
78163W        W70087  46.224   6.787  50.581
78164W        W70088   0.299  42.729  50.165
78165W        W70089   1.293  41.220  49.688
78166W        W70090  18.760  28.728  51.526
78167W        W70091  14.264  42.191  51.509
78168W        W70092   4.244  26.213  50.123
78169W        W70093  44.196  37.723  51.532
78170W        W70094  32.218   0.764  52.419
78171W        W70095  45.692  44.717  53.354
78172W        W70096  33.206  13.268  49.701
78173W        W70097  41.709  47.698  50.580
78174W        W70098  42.692  46.190  50.589
78175W        W70099  40.714  29.241  53.808
78176W        W70100  46.715  44.221  53.348
78177W        W70101  13.270   7.283  53.787
78178W        W70102   0.782  11.755  51.532
78179W        W70103  41.684  18.719  53.336
78180W        W70104  13.241  38.688  51.957
78181W        W70105  36.214  39.710  51.987
78182W        W70106  13.267  48.171  50.617
78183W        W70107  12.260   2.253  49.688
78184W        W70108   2.255  34.201  53.327
78185W        W70109  41.690  24.749  49.681
78186W        W70110  18.724  33.225  50.590
78187W        W70111  35.202  39.698  49.697
78188W        W70112  47.699  20.231  52.434
78189W        W70113  46.676  29.222  51.500
78190W        W70114   4.747   4.746  52.871
78191W        W70115  23.743   3.784  52.445
78192W        W70116  30.221  24.259  51.053
78193W        W70117  21.748  43.197  50.137
78194W        W70118  34.222  19.749  51.498
78195W        W70119  22.745  41.687  51.510
78196W        W70120  47.214   1.268  49.686
78197W        W70121  35.700  38.228  51.972
78198W        W70122  26.709  14.266  49.671
78199W        W70123  47.173   2.791  50.600
78200W        W70124  16.249  48.203  49.692
78201W        W70125  39.724  28.710  50.612
78202W        W70126  45.206  25.741  53.772
78203W        W70127   6.257   9.240  49.665
78204W        W70128  21.737   2.749  53.317
78205W        W70129   1.255   2.292  50.160
78206W        W70130  15.264  16.256  50.591
78207W        W70131  23.726  33.727  51.532
78208W        W70132  17.231  10.275  49.700
78209W        W70133  46.680  29.709  52.434
78210W        W70134   8.253  46.216  52.407
78211W        W70135  38.212  24.239  52.426
78212W        W70136  20.723  38.722  52.418
78213W        W70137   9.254   3.749  51.497
78214W        W70138  22.715  48.197  51.951
78215W        W70139  37.227  29.232  53.340
78216W        W70140   5.765  34.196  51.061
78217W        W70141  19.250  30.234  51.491
78218W        W70142  11.242  12.735  51.513
78219W        W70143   4.286  20.248  50.122
78220W        W70144  27.741  23.714  51.952
78221W        W70145  38.695   2.275  50.622
78222W        W70146  45.683  19.245  52.878
78223W        W70147  21.756  20.220  51.983
78224W        W70148  15.245  26.754  53.801
78225W        W70149  33.697  27.737  50.154
78226W        W70150  41.184  40.205  51.532
78227W        W70151  10.734  43.196  50.592
78228W        W70152  17.725  11.268  50.130
78229W        W70153  32.236  29.231  52.891
78230W        W70154   7.787  34.204  51.986
78231W        W70155   4.761  47.210  51.044
78232W        W70156  34.728  31.731  52.404
78233W        W70157  42.227  33.213  52.439
78234W        W70158  17.258   1.274  52.416
78235W        W70159  12.732  33.704  52.897
78236W        W70160   5.760  44.706  52.877
78237W        W70161  10.264  11.778  53.812
78238W        W70162  36.710   1.292  52.884
78239W        W70163   4.279  23.256  52.869
78240W        W70164  47.681   4.289  51.044
78241W        W70165  13.762  19.224  51.526
78242W        W70166  10.740  12.736  50.590
78243W        W70167  15.765  34.229  52.418
78244W        W70168   6.273  13.239  53.782
78245W        W70169  15.241  34.221  53.805
78246W        W70170  44.220  13.238  51.981
78247W        W70171  20.262  35.216  51.982
78248W        W70172  25.755  27.744  53.350
78249W        W70173  30.233  24.730  53.343
78250W        W70174  30.229   7.742  52.448
78251W        W70175  41.211  11.275  53.788
78252W        W70176  22.217  25.238  51.062
78253W        W70177  44.689  42.711  53.357
78254W        W70178   2.772  41.198  50.598
78255W        W70179  14.260   2.250  51.969
78256W        W70180  28.222   0.259  51.077
78257W        W70181  20.253  36.715  53.772
78258W        W70182  45.700  11.750  50.591
78259W        W70183  28.212  29.708  53.772
78260W        W70184  31.709  31.206  51.964
78261W        W70185  10.279  13.766  51.535
78262W        W70186   5.783   6.761  50.585
78263W        W70187  34.217  33.200  51.062
78264W        W70188  18.264  11.733  52.430
78265W        W70189  37.734  14.744  53.359
78266W        W70190  28.749  30.233  51.956
78267W        W70191  14.244  32.710  51.056
78268W        W70192   9.245  39.687  51.049
78269W        W70193  15.260  38.227  51.058
78270W        W70194  48.220  19.759  52.422
78271W        W70195  40.194  27.228  49.693
78272W        W70196  29.723  17.759  53.320
78273W        W70197  42.709  27.719  49.694
78274W        W70198   6.763  20.723  53.348
78275W        W70199  28.211  26.737  53.780
78276W        W70200  42.696  22.716  51.956
78277W        W70201  10.268  24.246  52.441
78278W        W70202  34.715   0.283  49.692
78279W        W70203  40.208  16.229  50.133
78280W        W70204  21.264  11.275  52.417
78281W        W70205  14.766   0.252  53.814
78282W        W70206  48.192  18.723  50.123
78283W        W70207  13.775   7.757  49.673
78284W        W70208  41.714  14.775  52.415
78285W        W70209  41.220  20.764  50.579
78286W        W70210   4.267  10.781  53.333
78287W        W70211  46.193  35.200  51.500
78288W        W70212  47.703   3.266  51.960
78289W        W70213   2.758  27.748  49.699
78290W        W70214   1.250  46.205  51.061
78291W        W70215  11.735  35.215  49.678
78292W        W70216  33.232  24.725  50.593
78293W        W70217  42.223  40.691  53.782
78294W        W70218  37.734  31.707  51.066
78295W        W70219  14.228  34.242  51.068
78296W        W70220  37.200  36.716  53.327
78297W        W70221  29.730  30.747  51.050
78298W        W70222  43.214  30.708  52.428
78299W        W70223  27.216  25.728  53.351
78300W        W70224   7.741  10.768  51.952
78301W        W70225  29.212  38.714  50.142
78302W        W70226  45.703  24.743  53.326
78303W        W70227  18.223  42.726  52.423
78304W        W70228  19.719  40.691  50.136
78305W        W70229  47.700  43.706  51.047
78306W        W70230   7.742  31.201  51.057
78307W        W70231  15.262   0.266  52.408
78308W        W70232  36.702  34.732  49.698
78309W        W70233  13.765  39.213  52.903
78310W        W70234  30.700  45.694  50.617
78311W        W70235  35.696   5.263  52.423
78312W        W70236  41.701  11.744  51.043
78313W        W70237  21.219  45.181  51.044
78314W        W70238   1.281  29.232  51.949
78315W        W70239  46.196  45.692  53.783
78316W        W70240  37.217  47.219  53.347
78317W        W70241  29.722  10.250  51.967
78318W        W70242   4.785  13.234  50.139
78319W        W70243  36.713  35.214  52.410
78320W        W70244  36.719  20.760  49.676
78321W        W70245  46.198  25.737  49.667
78322W        W70246  23.739  32.718  51.074
78323W        W70247  43.198  44.698  49.679
78324W        W70248  47.201  35.715  50.154
78325W        W70249  26.213  46.686  49.709
78326W        W70250  10.764  12.257  49.682
78327W        W70251  18.746   8.769  53.334
78328W        W70252   7.751  20.751  51.964
78329W        W70253  42.206   0.253  52.896
78330W        W70254  18.732  39.696  52.901
78331W        W70255  37.208  27.743  53.809
78332W        W70256  44.180   7.240  53.800
78333W        W70257  22.733  38.188  49.686
78334W        W70258  24.214  19.728  53.338
78335W        W70259  37.229   8.255  51.525
78336W        W70260  25.747  31.239  51.522
78337W        W70261  38.721  19.723  51.515
78338W        W70262  17.732  34.705  51.986
78339W        W70263  23.745  43.725  53.353
78340W        W70264  24.212  25.715  52.882
78341W        W70265  44.219   8.737  53.320
78342W        W70266  27.250  35.217  51.058
78343W        W70267   9.237  34.705  50.166
78344W        W70268  42.682  16.268  50.156
78345W        W70269  21.749  17.755  51.511
78346W        W70270  25.233  29.252  51.988
78347W        W70271  47.212  22.235  50.146
78348W        W70272  27.254  10.753  49.668
78349W        W70273   7.264  20.234  52.896
78350W        W70274  21.254  13.770  51.506
78351W        W70275  23.244   3.266  52.448
78352W        W70276  40.226   7.747  52.889
78353W        W70277   6.247  29.743  49.681
78354W        W70278  11.767  48.190  53.355
78355W        W70279  44.701  19.267  50.584
78356W        W70280   3.759   4.278  52.435
78357W        W70281  38.219  27.238  53.349
78358W        W70282   5.779  16.726  50.612
78359W        W70283  18.268   5.259  53.330
78360W        W70284  12.231   6.789  51.038
78361W        W70285   3.777   3.289  50.124
78362W        W70286  45.718  13.730  53.781
78363W        W70287   4.751  47.179  50.145
78364W        W70288  38.694  33.739  50.150
78365W        W70289  44.700  17.246  51.978
78366W        W70290  31.207  40.225  51.992
78367W        W70291  45.195  24.756  52.892
78368W        W70292  42.202  46.199  50.596
78369W        W70293  42.226  43.703  52.895
78370W        W70294  23.712  27.724  52.404
78371W        W70295  33.730  37.196  50.601
78372W        W70296  11.760  37.724  53.789
78373W        W70297   9.768   0.296  51.490
78374W        W70298  47.185  27.250  49.693
78375W        W70299  21.225   7.738  52.434
78376W        W70300  26.208  46.715  52.867
78377W        W70301  23.741  45.721  51.497
78378W        W70302  22.746  22.254  49.693
78379W        W70303  22.263  27.228  53.354
78380W        W70304   4.782  22.748  50.149
78381W        W70305  35.721   0.778  52.871
78382W        W70306  33.733  41.698  50.131
78383W        W70307  33.727   0.761  53.791
78384W        W70308  20.238  47.221  51.970
78385W        W70309  32.218   7.769  52.871
78386W        W70310  48.194  11.748  52.423
78387W        W70311  17.766  31.699  51.046
78388W        W70312  30.208   0.257  51.521
78389W        W70313   3.760  40.213  50.150
78390W        W70314  34.203  29.244  51.507
78391W        W70315  45.688  14.771  50.166
78392W        W70316  21.248  26.724  52.897
78393W        W70317   6.756  39.223  50.612
78394W        W70318  42.184  32.221  50.159
78395W        W70319   7.783  13.236  51.961
78396W        W70320  18.742  21.744  50.157
78397W        W70321  38.704   8.264  50.129
78398W        W70322  12.276  16.252  52.415
78399W        W70323  33.738  24.720  52.411
78400W        W70324  43.216  23.736  51.071
78401W        W70325  14.261  37.231  51.962
78402W        W70326  28.745  25.741  50.580
78403W        W70327  45.183  34.741  51.061
78404W        W70328  37.714  29.236  52.888
78405W        W70329  21.734  31.720  52.893
78406W        W70330  41.231  48.213  49.687
78407W        W70331  10.257  26.248  52.412
78408W        W70332  42.722  22.740  52.414
78409W        W70333  30.719  23.743  53.346
78410W        W70334  46.175  21.757  51.961
78411W        W70335  28.745  40.726  53.793
78412W        W70336  29.204   0.294  50.135
78413W        W70337   2.773  41.687  51.514
78414W        W70338  22.215  44.693  51.497
78415W        W70339  45.702   5.282  50.620
78416W        W70340  13.736  43.211  50.618
78417W        W70341  39.189  14.769  51.053
78418W        W70342   5.746  46.221  50.123
78419W        W70343   4.776  45.193  50.617
78420W        W70344  11.257   5.761  52.423
78421W        W70345   5.750  40.206  53.330
78422W        W70346  11.256  46.196  53.803
78423W        W70347  45.180  23.221  52.431
78424W        W70348  38.698  13.278  52.414
78425W        W70349  43.683  32.199  50.605
78426W        W70350   4.265   8.767  50.140
78427W        W70351  27.213  21.240  50.156
78428W        W70352  33.222  22.726  49.697
78429W        W70353  12.777  31.224  51.529
78430W        W70354  10.267  13.262  51.040
78431W        W70355   3.782  21.761  52.440
78432W        W70356   3.289  44.179  52.860
78433W        W70357  40.710   0.267  53.773
78434W        W70358  25.715  28.253  51.977
78435W        W70359  33.729  11.253  52.896
78436W        W70360  35.231  45.713  49.684
78437W        W70361   9.270  32.708  51.514
78438W        W70362   1.265  15.231  51.951
78439W        W70363   1.750   9.251  51.979
78440W        W70364  43.199  35.691  51.525
78441W        W70365  35.691  40.228  52.884
78442W        W70366  11.241   8.752  51.519
78443W        W70367  44.223   8.742  52.411
78444W        W70368  16.255   5.269  49.700
78445W        W70369  26.255  18.759  52.862
78446W        W70370  42.692   6.275  53.328
78447W        W70371  43.195  45.707  53.815
78448W        W70372   8.255  36.690  49.679
78449W        W70373  23.722  47.705  51.490
78450W        W70374  22.734  47.712  51.967
78451W        W70375  13.245  29.744  51.494
78452W        W70376  27.211  15.735  51.986
78453W        W70377  39.728  23.217  52.888
78454W        W70378  43.222   1.281  52.899
78455W        W70379  42.729  15.270  51.519
78456W        W70380   0.773   9.755  49.687
78457W        W70381   5.788  33.710  50.608
78458W        W70382  14.246   2.259  53.333
78459W        W70383  44.202  20.720  53.361
78460W        W70384  16.765  25.755  50.582
78461W        W70385  41.218  31.221  50.578
78462W        W70386  22.750  43.195  50.159
78463W        W70387   4.770  19.258  50.589
78464W        W70388  20.720   6.252  52.419
78465W        W70389  44.199  33.703  52.872
78466W        W70390  30.711  24.734  52.439
78467W        W70391  41.686  21.737  51.961
78468W        W70392  45.689   0.791  53.807
78469W        W70393  21.222  40.233  53.774
78470W        W70394  19.727  44.687  49.698
78471W        W70395  24.736  21.263  50.121
78472W        W70396  43.696   7.774  52.888
78473W        W70397  29.702  48.217  52.448
78474W        W70398   8.747  39.733  52.428
78475W        W70399   4.264   1.766  49.683
78476W        W70400  24.214  32.737  53.781
78477W        W70401  40.205  36.705  52.417
78478W        W70402  14.761  15.271  51.531
78479W        W70403   5.251  45.695  51.984
78480W        W70404   6.778  23.234  51.956
78481W        W70405   1.752   8.240  52.410
78482W        W70406  42.692  45.695  53.340
78483W        W70407  28.237  10.757  53.323
78484W        W70408   0.792  36.206  53.780
78485W        W70409  27.729  15.727  51.947
78486W        W70410  23.755  10.773  53.346
78487W        W70411  36.730  19.746  50.585
78488W        W70412   1.767  32.246  51.523
78489W        W70413  18.756  23.215  50.609
78490W        W70414  30.244  40.692  53.780
78491W        W70415  38.710   2.257  53.341
78492W        W70416  30.727  12.266  50.608
78493W        W70417  13.735   2.746  50.622
78494W        W70418  33.708  16.258  50.595
78495W        W70419  32.706  12.252  53.316
78496W        W70420  21.235  43.190  52.865
78497W        W70421  36.203   9.281  50.123
78498W        W70422  38.735  17.728  51.493
78499W        W70423   6.240  47.198  50.139
78500W        W70424  46.685  19.748  51.051
78501W        W70425  47.685  47.215  50.122
78502W        W70426   5.772  33.230  50.610
78503W        W70427  20.716  31.716  50.151
78504W        W70428  34.204  20.221  51.506
78505W        W70429  27.735   6.249  51.985
78506W        W70430  10.744  19.266  51.534
78507W        W70431  29.202  42.722  52.448
78508W        W70432  26.706  29.726  51.505
78509W        W70433  26.207  43.197  49.679
78510W        W70434  39.692   4.772  50.610
78511W        W70435   9.736  23.717  50.623
78512W        W70436  19.256  36.201  53.791
78513W        W70437  26.708  30.737  51.040
78514W        W70438  12.252  28.210  49.665
78515W        W70439  18.228  21.758  51.076
78516W        W70440  33.728  47.715  51.049
78517W        W70441   6.757  28.211  53.778
78518W        W70442   0.765  43.727  52.890
78519W        W70443  23.230  16.755  52.436
78520W        W70444  20.747  35.726  51.968
78521W        W70445  21.740   9.260  49.666
78522W        W70446  35.193  36.235  53.334
78523W        W70447  11.736  21.718  50.163
78524W        W70448   0.771  35.709  52.895
78525W        W70449   3.762  13.769  53.809
78526W        W70450  20.736   4.292  50.136
78527W        W70451   1.793  11.765  50.599
78528W        W70452  30.235  45.682  50.121
78529W        W70453   1.777   0.778  51.965
78530W        W70454  24.754  17.757  51.068
78531W        W70455  25.740  27.705  52.897
78532W        W70456  22.256  35.726  49.694
78533W        W70457  32.734  25.224  50.580
78534W        W70458  29.209  47.184  51.051
78535W        W70459  19.765  12.279  51.983
78536W        W70460  47.184   3.247  52.446
78537W        W70461  44.692   6.257  52.898
78538W        W70462  17.742  13.737  52.415
78539W        W70463  45.723  33.240  50.132
78540W        W70464   1.788  21.724  49.709
78541W        W70465  36.693  37.689  52.432
78542W        W70466  23.729  12.251  53.813
78543W        W70467   4.761  30.245  49.686
78544W        W70468  19.233  20.730  52.900
78545W        W70469  38.724  33.218  50.166
78546W        W70470  24.738  39.224  50.589
78547W        W70471  46.710  34.222  51.511
78548W        W70472   0.293   2.266  50.591
78549W        W70473  31.234   5.256  49.689
78550W        W70474  47.174  25.738  51.059
78551W        W70475  40.208  43.711  51.953
78552W        W70476  15.760  34.199  52.880
78553W        W70477  47.713  24.223  53.338
78554W        W70478   9.275  32.232  52.412
78555W        W70479  46.692  46.199  50.160
78556W        W70480  22.219  19.758  50.160
78557W        W70481   7.257  29.714  52.866
78558W        W70482  28.209  38.206  50.602
78559W        W70483  12.244  18.258  51.050
78560W        W70484   9.265  12.237  51.948
78561W        W70485  33.219  34.736  50.140
78562W        W70486  35.738  29.705  50.602
78563W        W70487  23.731  38.189  49.669
78564W        W70488  14.238  15.269  50.607
78565W        W70489  13.769  13.271  53.329
78566W        W70490  43.700  43.702  51.968
78567W        W70491  40.721  38.711  49.703
78568W        W70492  18.225   7.755  50.135
78569W        W70493   3.256  14.761  51.056
78570W        W70494  24.735   2.747  51.953
78571W        W70495  45.710  26.729  53.788
78572W        W70496  21.762  13.234  51.505
78573W        W70497  39.219  23.711  52.896
78574W        W70498  45.207  31.746  50.582
78575W        W70499  44.722  23.713  51.529
78576W        W70500  36.224  10.734  52.873
78577W        W70501  12.250  31.206  53.359
78578W        W70502  14.262  22.722  50.133
78579W        W70503   1.250  37.702  52.412
78580W        W70504  18.238   8.279  52.444
78581W        W70505  24.725  39.728  51.075
78582W        W70506   2.771  45.678  51.064
78583W        W70507  10.234  17.247  51.989
78584W        W70508   1.756   7.747  50.606
78585W        W70509  23.251  15.770  52.421
78586W        W70510  43.220   1.288  52.435
78587W        W70511  13.768  36.192  49.704
78588W        W70512  29.225  36.193  52.893
78589W        W70513   3.789   1.785  53.772
78590W        W70514  37.217  46.700  51.959
78591W        W70515  13.272  26.235  53.328
78592W        W70516  44.714   2.287  53.778
78593W        W70517   1.254   4.256  51.512
78594W        W70518  40.212  47.695  49.665
78595W        W70519   2.781  12.276  52.889
78596W        W70520  21.745  16.750  51.499
78597W        W70521   3.768   0.776  51.495
78598W        W70522   3.751  19.744  53.782
78599W        W70523   3.260  23.752  51.955
78600W        W70524  20.237   3.785  51.052
78601W        W70525  19.720   8.270  52.899
78602W        W70526  11.269   5.753  50.601
78603W        W70527   3.270  41.705  53.791
78604W        W70528  32.731  30.203  50.164
78605W        W70529  29.709  23.714  53.789
78606W        W70530  12.233  12.256  53.335
78607W        W70531   3.269  46.695  51.978
78608W        W70532  28.220  35.696  53.785
78609W        W70533  12.731  28.725  49.704
78610W        W70534  14.754  31.229  51.954
78611W        W70535   2.265  19.758  52.897
78612W        W70536  12.746   9.772  49.670
78613W        W70537  20.746  20.717  53.781
78614W        W70538  12.253  11.261  52.884
78615W        W70539  32.731  41.720  52.898
78616W        W70540   1.271  29.741  51.510
78617W        W70541   7.748  20.745  49.707
78618W        W70542   8.243   1.793  51.063
78619W        W70543  21.720  23.261  51.951
78620W        W70544  23.751  31.713  50.129
78621W        W70545  46.691  34.704  51.990
78622W        W70546  40.223  31.698  51.965
78623W        W70547  27.241  17.251  50.158
78624W        W70548  37.193   1.273  52.899
78625W        W70549  14.238  13.748  50.138
78626W        W70550  43.221  11.769  51.954
78627W        W70551  33.211  36.696  51.955
78628W        W70552  35.738  11.280  53.352
78629W        W70553  21.754  47.703  51.049
78630W        W70554  41.186  16.733  52.413
78631W        W70555  37.702   8.759  53.817
78632W        W70556  38.199  40.709  52.430
78633W        W70557   9.759  35.234  53.814
78634W        W70558  38.235  30.709  52.882
78635W        W70559  18.760  25.225  53.334
78636W        W70560  32.714  10.773  53.320
78637W        W70561  34.224  48.194  51.516
78638W        W70562  22.252  12.749  49.674
78639W        W70563  42.183  22.260  53.360
78640W        W70564  41.229  28.704  51.950
78641W        W70565  19.729  16.761  50.152
78642W        W70566  48.213   7.761  51.956
78643W        W70567  42.182  26.254  51.047
78644W        W70568  36.220  37.216  51.975
78645W        W70569  25.712  10.276  52.876
78646W        W70570   3.284  46.197  53.796
78647W        W70571  17.765  11.773  50.161
78648W        W70572  42.196   7.759  53.320
78649W        W70573  46.198  35.192  51.062
78650W        W70574  34.703  28.226  50.597
78651W        W70575  30.222   5.272  50.609
78652W        W70576  17.259  42.689  49.692
78653W        W70577  14.738  36.209  52.889
78654W        W70578   7.244  35.211  52.408
78655W        W70579   0.755  33.724  53.351
78656W        W70580   8.265  38.209  52.894
78657W        W70581   2.773  27.740  52.414
78658W        W70582  30.242  11.249  53.361
78659W        W70583  42.695  35.716  50.140
78660W        W70584  16.254  24.753  53.773
78661W        W70585   0.787  23.732  51.529
78662W        W70586   6.747  17.260  51.035
78663W        W70587  29.231  29.219  51.071
78664W        W70588  43.701  44.193  52.863
78665W        W70589  25.743  10.769  53.816
78666W        W70590  38.215  17.236  49.699
78667W        W70591  30.745   0.778  52.875
78668W        W70592  29.217  45.704  52.420
78669W        W70593  20.251  28.204  51.045
78670W        W70594  25.729   6.273  51.968
78671W        W70595  20.752  16.730  52.404
78672W        W70596  21.247  33.702  51.078
78673W        W70597  22.757   5.265  50.123
78674W        W70598  33.736  42.701  51.519
78675W        W70599  37.712   1.251  51.947
78676W        W70600  29.241  29.203  51.976
78677W        W70601   3.794  43.685  49.670
78678W        W70602  36.690  28.218  51.959
78679W        W70603  17.722   5.743  53.324
78680W        W70604   4.257  21.763  52.413
78681W        W70605  24.259   6.259  51.078
78682W        W70606  45.708  11.240  52.880
78683W        W70607  46.715  17.227  53.347
78684W        W70608  41.187   7.267  49.692
78685W        W70609  40.710  38.234  49.665
78686W        W70610  11.274  22.260  52.435
78687W        W70611  21.224  32.732  49.695
78688W        W70612  41.711  40.201  51.052
78689W        W70613  24.222  48.199  53.803
78690W        W70614  43.693  31.207  51.491
78691W        W70615  33.742  21.738  51.074
78692W        W70616  10.740  46.673  53.323
78693W        W70617  29.717  36.212  52.435
78694W        W70618  14.751  39.202  53.803
78695W        W70619  31.742  43.188  52.879
78696W        W70620   7.266   9.735  51.508
78697W        W70621  38.724  11.280  51.514
78698W        W70622  23.220   1.267  52.418
78699W        W70623   6.253   6.764  49.698
78700W        W70624  48.200  35.198  53.809
78701W        W70625   5.774  30.700  50.582
78702W        W70626  27.744   7.775  51.041
78703W        W70627  27.715  12.272  49.674
78704W        W70628  17.757   7.753  49.686
78705W        W70629  38.219  16.759  50.147
78706W        W70630  17.231  45.715  51.972
78707W        W70631  37.197  26.720  50.161
78708W        W70632  19.235  21.759  52.862
78709W        W70633   6.759  10.250  49.665
78710W        W70634  30.743  19.232  51.051
78711W        W70635  38.715  11.280  49.670
78712W        W70636  19.752  46.188  50.157
78713W        W70637   9.262  39.204  52.861
78714W        W70638  23.241  23.246  51.985
78715W        W70639   0.766   6.267  53.350
78716W        W70640  12.772  32.731  51.060
78717W        W70641  20.252  36.212  53.778
78718W        W70642  40.725  46.193  50.604
78719W        W70643  11.763  37.735  50.618
78720W        W70644  34.740  25.741  52.867
78721W        W70645   9.266  46.690  53.810
78722W        W70646   8.248   6.782  51.525
78723W        W70647   6.763   9.257  52.417
78724W        W70648  43.222  41.711  52.439
78725W        W70649  45.702  45.678  53.802
78726W        W70650   7.759  21.722  51.076
78727W        W70651  35.214  43.692  51.502
78728W        W70652  20.744  33.226  52.863
78729W        W70653  19.249  33.199  51.502
78730W        W70654  24.221  13.772  49.705
78731W        W70655  38.203  30.734  52.403
78732W        W70656  27.252  11.749  50.578
78733W        W70657   8.284  44.208  50.581
78734W        W70658  34.240  38.232  52.872
78735W        W70659  46.705  46.209  53.341
78736W        W70660  47.204   4.258  49.709
78737W        W70661  12.270   5.753  52.422
78738W        W70662  39.187  13.751  52.868
78739W        W70663  41.208  41.684  49.700
78740W        W70664  33.716   2.776  51.062
78741W        W70665  16.250  32.239  50.584
78742W        W70666  13.258  22.722  53.789
78743W        W70667   9.250  41.213  51.504
78744W        W70668  32.729  32.741  49.689
78745W        W70669  43.204  33.241  53.787
78746W        W70670   3.292  15.243  50.132
78747W        W70671  38.196  25.721  49.693
78748W        W70672  24.712  31.231  51.986
78749W        W70673  38.735  35.701  52.903
78750W        W70674   3.259  19.722  53.797
78751W        W70675  40.227  40.728  51.048
78752W        W70676  31.215   8.276  50.606
78753W        W70677  15.242   1.276  52.419
78754W        W70678  40.713  10.737  49.676
78755W        W70679  17.263  15.234  49.708
78756W        W70680  38.704  23.222  53.322
78757W        W70681  42.684  36.212  51.524
78758W        W70682   6.286  40.708  52.872
78759W        W70683  45.710   8.242  49.692
78760W        W70684  30.726  16.758  51.975
78761W        W70685  38.226  25.257  50.148
78762W        W70686   6.757  12.270  52.883
78763W        W70687  34.730  13.762  51.054
78764W        W70688  21.243   8.740  51.963
78765W        W70689   2.278  37.690  51.044
78766W        W70690  11.264   1.278  53.353
78767W        W70691  28.232  45.714  53.775
78768W        W70692  36.706  23.214  52.879
78769W        W70693   9.252  32.214  53.775
78770W        W70694  48.209  26.740  49.686
78771W        W70695  31.730  45.696  53.340
78772W        W70696   5.247   5.789  49.680
78773W        W70697   4.287  16.741  49.684
78774W        W70698  20.219  12.241  53.336
78775W        W70699  14.749  38.201  52.434
78776W        W70700  23.258   4.754  50.159
78777W        W70701  25.757  23.242  53.331
78778W        W70702   4.284  44.691  51.516
78779W        W70703  14.253  25.255  52.894
78780W        W70704  21.224  21.220  51.989
78781W        W70705  19.227  32.199  52.888
78782W        W70706   2.761  31.740  53.333
78783W        W70707  22.722   1.788  49.666
78784W        W70708  13.760   5.267  51.953
78785W        W70709  27.753  20.734  52.436
78786W        W70710  47.688  39.728  53.317
78787W        W70711  18.726  36.702  53.319
78788W        W70712  25.234  47.185  50.143
78789W        W70713   0.762   6.786  51.954
78790W        W70714   4.744  31.212  52.427
78791W        W70715  10.744  22.760  53.325
78792W        W70716  11.271   8.764  50.608
78793W        W70717  29.737  10.273  51.508
78794W        W70718  13.768  14.731  52.888
78795W        W70719  18.231   7.779  49.672
78796W        W70720  33.229   0.766  50.583
78797W        W70721   2.772  36.207  49.668
78798W        W70722   4.792  38.205  51.056
78799W        W70723  22.749  48.210  52.429
78800W        W70724  14.265  40.720  52.442
78801W        W70725  18.752  20.724  50.609
78802W        W70726  46.222  47.691  50.587
78803W        W70727  41.728  33.736  50.609
78804W        W70728  29.224  41.718  51.974
78805W        W70729  37.207  44.702  49.696
78806W        W70730  19.748  37.722  53.321
78807W        W70731  28.738   0.286  53.351
78808W        W70732   1.272  10.772  49.700
78809W        W70733   9.783   2.759  53.809
78810W        W70734  24.218  48.185  52.439
78811W        W70735   8.769  39.217  52.405
78812W        W70736  44.694  17.245  53.815
78813W        W70737   4.791  24.233  53.356
78814W        W70738   1.259  47.708  50.131
78815W        W70739  33.240  32.740  50.122
78816W        W70740  38.220   2.253  52.884
78817W        W70741  32.236  13.272  53.799
78818W        W70742  17.244  46.703  53.323
78819W        W70743   2.749  15.740  53.795
78820W        W70744  11.735  43.687  51.076
78821W        W70745  44.205  37.190  52.442
78822W        W70746  47.672  34.716  52.415
78823W        W70747  22.217  43.722  53.776
78824W        W70748   2.296   1.288  49.704
78825W        W70749  31.741   0.794  52.902
78826W        W70750   3.762  31.729  50.154
78827W        W70751  38.228  31.728  51.520
78828W        W70752   8.747   2.287  53.338
78829W        W70753  47.204   3.746  50.136
78830W        W70754  33.705  28.708  51.510
78831W        W70755  27.238  10.745  51.953
78832W        W70756  19.258  43.184  52.891
78833W        W70757  21.735  27.246  52.900
78834W        W70758  13.229  13.272  50.605
78835W        W70759   0.759   0.773  50.602
78836W        W70760  41.210  10.257  51.981
78837W        W70761  40.728  43.182  50.161
78838W        W70762  31.213  21.725  53.806
78839W        W70763  35.204  17.225  52.440
78840W        W70764   8.269  40.203  51.960
78841W        W70765   1.775   8.767  53.358
78842W        W70766  46.703   7.284  53.359
78843W        W70767  34.202  35.215  53.804
78844W        W70768  39.686  43.694  50.151
78845W        W70769  19.263  47.192  50.149
78846W        W70770  27.249  35.213  53.359
78847W        W70771  36.238  11.745  51.986
78848W        W70772  21.235  33.216  49.698
78849W        W70773  27.214  44.722  50.596
78850W        W70774  31.212  34.218  51.498
78851W        W70775  32.744  43.726  50.612
78852W        W70776  30.240  15.240  50.139
78853W        W70777  31.212  28.744  52.413
78854W        W70778  18.730  40.687  50.140
78855W        W70779  39.229  25.219  51.052
78856W        W70780   6.767   0.763  51.036
78857W        W70781   1.766  24.238  51.530
78858W        W70782  31.729   4.767  50.156
78859W        W70783  11.743   7.759  49.685
78860W        W70784   3.288   9.251  51.992
78861W        W70785  31.240  25.730  50.132
78862W        W70786  14.739  25.227  52.901
78863W        W70787  17.234   9.756  53.803
78864W        W70788  31.199  21.231  51.976
78865W        W70789  13.737  29.221  50.137
78866W        W70790  43.694  27.221  50.606
78867W        W70791  47.216  29.216  51.955
78868W        W70792  19.260  20.735  52.440
78869W        W70793  35.194  29.212  51.061
78870W        W70794  27.710  15.245  51.071
78871W        W70795  40.213  13.758  51.518
78872W        W70796  40.711  41.203  51.037
78873W        W70797  16.746   9.255  51.512
78874W        W70798   1.281   2.267  52.894
78875W        W70799  47.704  28.712  52.884
78876W        W70800  16.270  25.736  51.502
78877W        W70801  45.219  14.761  50.591
78878W        W70802  30.726  26.732  52.904
78879W        W70803  33.715  44.692  51.496
78880W        W70804  21.256   5.291  52.433
78881W        W70805   0.273   9.243  52.861
78882W        W70806  32.226  18.740  51.514
78883W        W70807  46.179  18.728  50.151
78884W        W70808  40.721  33.739  53.807
78885W        W70809  20.224  31.729  49.700
78886W        W70810  28.232   3.280  52.882
78887W        W70811  44.180   9.762  53.776
78888W        W70812  44.179   0.299  51.963
78889W        W70813  42.226  42.203  53.345
78890W        W70814  28.224   9.761  52.878
78891W        W70815  34.699   1.286  51.056
78892W        W70816  10.283   7.762  51.067
78893W        W70817  20.251   3.283  50.589
78894W        W70818   8.283  38.201  53.784
78895W        W70819  13.270   5.284  52.447
78896W        W70820  13.758   5.780  53.789
78897W        W70821  38.236   8.769  52.447
78898W        W70822   7.752  45.215  51.507
78899W        W70823  29.728   2.271  51.044
78900W        W70824  29.751  40.696  51.975
78901W        W70825  22.259  23.734  50.153
78902W        W70826  18.221  31.239  49.689
78903W        W70827   6.769  41.187  52.903
78904W        W70828  21.745   0.278  51.974
78905W        W70829   8.248  45.195  53.338
78906W        W70830  26.727   7.740  49.690
78907W        W70831  24.239  16.764  50.132
78908W        W70832   5.287   0.781  50.620
78909W        W70833  20.746  31.218  52.406
78910W        W70834  18.268  40.229  51.037
78911W        W70835  30.749   7.747  50.597
78912W        W70836  19.259  10.733  53.778
78913W        W70837  34.200   8.261  50.593
78914W        W70838  44.226  13.262  51.498
78915W        W70839  39.200  11.731  50.161
78916W        W70840  22.220  27.746  50.133
78917W        W70841  19.266  43.679  51.964
78918W        W70842  12.758  39.715  51.957
78919W        W70843  46.687  12.733  52.410
78920W        W70844  34.708  29.710  51.975
78921W        W70845   2.249  21.746  51.509
78922W        W70846  45.681   5.283  52.430
78923W        W70847  20.256  23.745  53.793
78924W        W70848   7.766  44.180  51.976
78925W        W70849  28.234  11.277  52.901
78926W        W70850  14.750   4.776  49.670
78927W        W70851  33.733  46.222  52.441
78928W        W70852  45.712  16.249  52.429
78929W        W70853  40.185  24.235  51.077
78930W        W70854  43.691  40.221  53.326
78931W        W70855  25.726  39.213  51.496
78932W        W70856  44.211  11.761  49.704
78933W        W70857   9.739   6.270  51.984
78934W        W70858  24.239  46.222  52.414
78935W        W70859  45.722  45.182  51.984
78936W        W70860  46.221  33.733  52.426
78937W        W70861  22.231  37.194  53.782
78938W        W70862  23.754  35.196  51.535
78939W        W70863   5.247  20.754  51.500
78940W        W70864  11.739  30.739  49.695
78941W        W70865  41.712  21.216  51.952
78942W        W70866  29.240  37.691  50.124
78943W        W70867  23.738  43.718  49.678
78944W        W70868  46.708  44.680  51.055
78945W        W70869  36.195   6.285  52.431
78946W        W70870  27.710  20.750  52.871
78947W        W70871  33.728   2.772  52.866
78948W        W70872  16.739  12.766  50.586
78949W        W70873   9.781   1.258  52.869
78950W        W70874   6.264  43.199  52.865
78951W        W70875   8.779  17.770  52.419
78952W        W70876  27.739   5.288  50.586
78953W        W70877   5.777  32.208  50.137
78954W        W70878  41.698  30.249  53.805
78955W        W70879  11.748  45.180  53.354
78956W        W70880  23.723  11.233  53.332
78957W        W70881  36.233  12.751  52.863
78958W        W70882  41.210  32.238  52.424
78959W        W70883  40.715  48.213  51.961
78960W        W70884  45.199  41.729  51.532
78961W        W70885  16.739  19.739  51.064
78962W        W70886  15.761  47.688  53.773
78963W        W70887   2.792  13.764  50.587
78964W        W70888  41.199  24.235  50.135
78965W        W70889  37.694   3.284  51.054
78966W        W70890  44.692  43.715  51.533
78967W        W70891   5.286  37.223  50.156
78968W        W70892  33.734  27.708  49.694
78969W        W70893  47.691   6.775  53.360
78970W        W70894  39.230  34.221  49.695
78971W        W70895  44.710  41.699  51.963
78972W        W70896  46.711  23.251  50.607
78973W        W70897   4.775  39.231  50.589
78974W        W70898  20.762  15.745  49.688
78975W        W70899  34.242  32.734  50.123
78976W        W70900  33.216  14.234  53.325
78977W        W70901  38.213  41.700  51.953
78978W        W70902  37.729  25.741  51.495
78979W        W70903   2.274  25.224  53.810
78980W        W70904  18.228   6.757  51.965
78981W        W70905  11.232  43.703  51.075
78982W        W70906   2.258   7.263  51.034
78983W        W70907  29.204   4.264  51.956
78984W        W70908   3.262   4.745  53.360
78985W        W70909  26.246  39.697  51.065
78986W        W70910  30.206   9.769  53.800
78987W        W70911   9.773  24.211  51.949
78988W        W70912  43.219  11.264  51.526
78989W        W70913  30.742  44.690  51.073
78990W        W70914  41.688  19.246  50.599
78991W        W70915   4.292   5.788  52.866
78992W        W70916   9.746  16.735  51.071
78993W        W70917  46.218   5.780  53.793
78994W        W70918   0.254  31.215  51.045
78995W        W70919  34.210  23.242  52.429
78996W        W70920  26.239  12.758  53.817
78997W        W70921  20.736  17.731  51.071
78998W        W70922  38.189   4.274  53.789
78999W        W70923  24.223   3.256  50.601
79000W        W70924  11.774   9.759  52.423
79001W        W70925  14.730   0.792  49.698
79002W        W70926  13.248  44.698  50.615
79003W        W70927  25.216  48.197  52.408
79004W        W70928   4.777  16.238  51.508
79005W        W70929  40.219   1.779  51.042
79006W        W70930  36.693   5.762  50.140
79007W        W70931  35.705  43.192  52.440
79008W        W70932   2.282  42.214  51.500
79009W        W70933  24.711  11.732  53.350
79010W        W70934  20.230  15.751  53.334
79011W        W70935  11.737   2.792  51.966
79012W        W70936  45.696  32.230  50.620
79013W        W70937  22.215  15.738  50.601
79014W        W70938  34.231  43.682  52.448
79015W        W70939  38.719  14.234  52.863
79016W        W70940   3.770  14.243  49.682
79017W        W70941   4.288   1.279  50.159
79018W        W70942  37.706   3.791  51.514
79019W        W70943  14.263  37.688  51.522
79020W        W70944   7.248  38.230  50.610
79021W        W70945  43.694   7.252  51.492
79022W        W70946   0.262  45.685  50.588
79023W        W70947   9.261   5.280  51.057
79024W        W70948   8.776  45.182  51.492
79025W        W70949  41.221  17.239  50.157
79026W        W70950  15.259  30.748  53.786
79027W        W70951  28.235  11.244  51.048
79028W        W70952   3.786  26.710  53.322
79029W        W70953  48.215  43.702  50.131
79030W        W70954  13.735  11.731  53.342
79031W        W70955   5.780   7.284  49.686
79032W        W70956   5.765   0.250  52.433
79033W        W70957  40.692  14.246  51.986
79034W        W70958  31.240  17.731  51.048
79035W        W70959  27.236  45.201  51.499
79036W        W70960  13.759  43.707  53.323
79037W        W70961  29.241  11.747  50.157
79038W        W70962  26.243   3.294  50.149
79039W        W70963  45.698   5.746  50.153
79040W        W70964   6.787   5.764  51.498
79041W        W70965  29.737   4.247  52.424
79042W        W70966  19.766  42.728  51.970
79043W        W70967  31.747  26.729  53.353
79044W        W70968  18.257   8.739  51.034
79045W        W70969   9.738  40.712  51.987
79046W        W70970  28.751   5.778  52.905
79047W        W70971  25.246   8.262  52.404
79048W        W70972  20.723   3.287  52.882
79049W        W70973  42.189  47.688  53.321
79050W        W70974  35.697   6.771  51.977
79051W        W70975   5.273   8.281  52.422
79052W        W70976  23.745  12.773  53.347
79053W        W70977  14.769   9.252  50.163
79054W        W70978  29.237  30.226  53.334
79055W        W70979  27.749  36.700  51.058
79056W        W70980  13.232  26.243  51.508
79057W        W70981  13.775   9.242  52.889
79058W        W70982  32.711  39.721  50.143
79059W        W70983   5.254  44.194  52.427
79060W        W70984   2.255  24.252  50.136
79061W        W70985  15.239  17.730  51.073
79062W        W70986   1.269  15.768  49.666
79063W        W70987  44.718   8.781  53.329
79064W        W70988  45.715  38.208  52.874
79065W        W70989  41.716  17.733  51.520
79066W        W70990  43.708  10.262  51.051
79067W        W70991  24.256  11.268  53.327
79068W        W70992  40.690  23.740  50.590
79069W        W70993  41.203  47.219  52.872
79070W        W70994   5.250  10.247  51.044
79071W        W70995   4.250  12.739  51.966
79072W        W70996  14.267  27.718  51.520
79073W        W70997  17.770  11.754  49.710
79074W        W70998  46.219  36.227  51.954
79075W        W70999  33.215  18.760  51.060
79076W        W71000  47.202  35.740  53.785
79077W        W71001   3.291  43.716  51.048
79078W        W71002  33.717   7.267  53.360
79079W        W71003  33.741  29.224  52.421
79080W        W71004  34.724   8.754  51.508
79081W        W71005  10.748  46.223  51.533
79082W        W71006  46.694  42.223  53.773
79083W        W71007  15.245  15.240  49.694
79084W        W71008  17.742  29.706  53.317
79085W        W71009  12.251   7.240  51.963
79086W        W71010  24.724  27.211  49.683
79087W        W71011  43.695  38.188  51.051
79088W        W71012  32.733   3.293  52.439
79089W        W71013  44.212  24.757  52.439
79090W        W71014  42.183  13.733  51.066
79091W        W71015   1.771  21.217  51.974
79092W        W71016   8.769  40.723  52.420
79093W        W71017  23.751  18.743  53.802
79094W        W71018  11.775  11.757  53.811
79095W        W71019   7.262  47.712  51.046
79096W        W71020   9.764  13.231  50.153
79097W        W71021   9.747  24.235  52.902
79098W        W71022  27.248  47.713  51.055
79099W        W71023  25.253   4.267  51.037
79100W        W71024   2.270  29.738  51.528
79101W        W71025  14.248  13.771  49.702
79102W        W71026  12.767  28.717  51.056
79103W        W71027  18.250  21.231  52.438
79104W        W71028  12.276  22.761  50.603
79105W        W71029   7.267  47.680  52.439
79106W        W71030  25.757   5.772  51.512
79107W        W71031   7.767  32.202  51.057
79108W        W71032  36.193  30.226  51.035
79109W        W71033  25.213   2.779  53.784
79110W        W71034   5.271   9.249  51.048
79111W        W71035   9.740  14.246  52.445
79112W        W71036  43.690  18.739  52.890
79113W        W71037  38.712  33.228  51.077
79114W        W71038  19.257  13.752  49.704
79115W        W71039  35.693  30.234  49.696
79116W        W71040  10.254  30.217  52.426
79117W        W71041  34.715  16.238  51.494
79118W        W71042   5.757  16.228  53.776
79119W        W71043   6.278  19.244  50.134
79120W        W71044  40.213  22.741  53.794
79121W        W71045  14.753  40.205  52.435
79122W        W71046  44.690  27.742  51.049
79123W        W71047   3.280  46.685  51.036
79124W        W71048  39.233  14.751  53.793
79125W        W71049  40.231  34.208  51.064
79126W        W71050  26.755  44.699  51.035
79127W        W71051  46.216  27.711  53.801
79128W        W71052  22.746   7.758  52.896
79129W        W71053   4.281  34.228  53.816
79130W        W71054  41.194   1.268  52.424
79131W        W71055  43.194  27.737  53.773
79132W        W71056  42.698  14.230  53.357
79133W        W71057  22.747  31.737  53.803
79134W        W71058  40.690  12.249  53.797
79135W        W71059  25.733   3.777  53.811
79136W        W71060  44.214  23.738  51.982
79137W        W71061  17.261  45.711  51.494
79138W        W71062  34.728  26.222  53.337
79139W        W71063  20.742  19.723  52.888
79140W        W71064  27.714  41.221  53.797
79141W        W71065  43.707  37.215  50.591
79142W        W71066  48.189  13.255  49.675
79143W        W71067  22.250  17.271  49.667
79144W        W71068  18.247  23.719  51.499
79145W        W71069  33.215   3.259  52.873
79146W        W71070  32.716  13.256  50.148
79147W        W71071  16.758  31.739  53.803
79148W        W71072   2.762   3.778  50.132
79149W        W71073  42.699  41.213  51.535
79150W        W71074   1.747   0.762  52.870
79151W        W71075  18.737  14.250  52.433
79152W        W71076  42.705  21.235  50.588
79153W        W71077  32.223  23.251  51.510
79154W        W71078  24.220   5.249  52.420
79155W        W71079  22.717   7.255  53.322
79156W        W71080   0.793   4.261  50.588
79157W        W71081   1.785   1.772  49.696
79158W        W71082  26.223  13.731  52.430
79159W        W71083  35.695  26.248  52.871
79160W        W71084  32.715  27.223  51.982
79161W        W71085  42.705  26.244  52.862
79162W        W71086   7.739  24.231  51.977
79163W        W71087   4.262  44.215  49.673
79164W        W71088  39.194  19.749  53.780
79165W        W71089  14.764  30.235  51.966
79166W        W71090  45.686  10.265  53.355
79167W        W71091  13.260  31.211  52.865
79168W        W71092  15.245  19.751  51.948
79169W        W71093   6.782   7.263  51.528
79170W        W71094  35.214  11.243  49.699
79171W        W71095   4.747  22.754  53.808
79172W        W71096  21.715  15.755  51.957
79173W        W71097  14.264   0.276  53.330
79174W        W71098  41.191  14.229  50.596
79175W        W71099  24.238  29.703  52.893
79176W        W71100  31.707  42.220  51.527
79177W        W71101  33.717  42.700  53.773
79178W        W71102   4.283  39.707  53.775
79179W        W71103  43.189  38.723  53.359
79180W        W71104  10.779  47.718  53.336
79181W        W71105  16.240   1.758  52.405
79182W        W71106  47.700  40.221  52.408
79183W        W71107   8.755  46.204  51.500
79184W        W71108  39.724  33.724  51.055
79185W        W71109  41.704  18.233  51.978
79186W        W71110  15.259  32.732  51.985
79187W        W71111  47.701  26.738  52.423
79188W        W71112  12.743  20.247  50.163
79189W        W71113   0.772   5.270  53.781
79190W        W71114   0.252   5.779  49.698
79191W        W71115  24.235  14.269  49.695
79192W        W71116  25.715  31.708  50.607
79193W        W71117   1.271  29.209  53.333
79194W        W71118  45.695  44.201  52.903
79195W        W71119  39.693   6.245  51.034
79196W        W71120  32.244  35.220  51.072
79197W        W71121  33.720  22.235  51.509
79198W        W71122  11.280  39.191  52.446
79199W        W71123  40.706  48.190  50.142
79200W        W71124  29.734  24.716  51.493
79201W        W71125  39.734   8.760  53.798
79202W        W71126  22.712  17.765  51.517
79203W        W71127  11.752  38.705  50.124
79204W        W71128  27.753  35.711  51.979
79205W        W71129  37.217  30.711  50.616
79206W        W71130  27.711  17.761  49.709
79207W        W71131  17.268  11.735  50.612
79208W        W71132  43.226  43.180  52.891
79209W        W71133  44.202  13.249  53.796
79210W        W71134  19.255  28.718  50.599
79211W        W71135   8.238   4.277  49.697
79212W        W71136   5.251  36.711  49.680
79213W        W71137  27.722  24.257  50.146
79214W        W71138  41.229  34.730  51.982
79215W        W71139  37.207  42.683  52.416
79216W        W71140  44.721  31.203  50.127
79217W        W71141  40.702  27.730  53.318
79218W        W71142  39.703  12.245  52.870
79219W        W71143   2.295  37.722  49.699
79220W        W71144  15.770  33.725  51.972
79221W        W71145  28.707  42.184  50.147
79222W        W71146  24.218  15.731  52.863
79223W        W71147  46.722  15.756  52.420
79224W        W71148  33.699  40.223  51.989
79225W        W71149  38.728  17.256  49.669
79226W        W71150  31.207  17.261  53.355
79227W        W71151  34.220  10.781  51.056
79228W        W71152  31.227  39.201  52.436
79229W        W71153  16.270  18.227  51.069
79230W        W71154  25.249   6.772  51.948
79231W        W71155  43.183  37.198  51.493
79232W        W71156  44.726   3.262  53.776
79233W        W71157  26.730  19.728  53.786
79234W        W71158   6.277  20.746  51.060
79235W        W71159  43.711  25.241  51.065
79236W        W71160  21.230  31.712  51.058
79237W        W71161  17.726  39.722  53.806
79238W        W71162  16.768  33.209  51.078
79239W        W71163  36.737  13.749  53.812
79240W        W71164   5.786   6.269  53.331
79241W        W71165  45.689  23.721  49.685
79242W        W71166  29.718  12.235  52.883
79243W        W71167  38.732   5.764  51.528
79244W        W71168  19.758  31.704  49.695
79245W        W71169  32.232  28.248  49.677
79246W        W71170  43.715  35.224  51.529
79247W        W71171   5.755  39.212  50.586
79248W        W71172  14.749  39.689  53.777
79249W        W71173  47.711  17.234  51.047
79250W        W71174  18.735   5.775  51.978
79251W        W71175  16.240  31.727  50.132
79252W        W71176  20.246  39.222  52.430
79253W        W71177  21.232  24.724  51.973
79254W        W71178  37.701   3.265  53.809
79255W        W71179  43.708  17.731  53.357
79256W        W71180  25.222   9.266  51.957
79257W        W71181  18.765  11.273  49.702
79258W        W71182   1.274  48.182  52.432
79259W        W71183  27.718   9.240  53.807
79260W        W71184  24.710  46.184  49.705
79261W        W71185  44.682  41.193  49.702
79262W        W71186  46.709  36.710  51.036
79263W        W71187   0.770   1.292  49.692
79264W        W71188  31.739  47.203  52.902
79265W        W71189  18.235  12.252  49.695
79266W        W71190  27.739  31.702  51.512
79267W        W71191  23.261  22.263  53.802
79268W        W71192  28.720  47.692  51.038
79269W        W71193  32.246  14.755  51.053
79270W        W71194   7.760   6.259  51.065
79271W        W71195   6.286  22.259  53.346
79272W        W71196  47.214  32.724  53.324
79273W        W71197  17.739  31.213  49.682
79274W        W71198  33.204  29.214  50.162
79275W        W71199  46.196  17.224  53.351
79276W        W71200  32.718  13.768  51.535
79277W        W71201  46.674   6.744  51.037
79278W        W71202   7.285   7.747  51.511
79279W        W71203   9.774   6.256  52.882
79280W        W71204  10.756   8.758  51.957
79281W        W71205  18.738  25.725  52.435
79282W        W71206  31.742  29.709  50.131
79283W        W71207   4.754  21.732  51.949
79284W        W71208   7.245   2.792  51.037
79285W        W71209   1.264  43.205  51.527
79286W        W71210  33.216  16.740  50.590
79287W        W71211   0.794  37.705  53.808
79288W        W71212  15.764  27.227  51.034
79289W        W71213  45.187  12.276  51.520
79290W        W71214  35.194  38.704  53.352
79291W        W71215   3.284  37.704  49.676
79292W        W71216  21.754  21.763  51.070
79293W        W71217  43.690   4.782  51.078
79294W        W71218  42.705  33.703  50.158
79295W        W71219  15.227  15.735  52.410
79296W        W71220  19.239  41.227  49.698
79297W        W71221  28.736  36.209  50.605
79298W        W71222  31.221  19.224  53.345
79299W        W71223  24.234   0.793  52.421
79300W        W71224  22.236  29.242  52.413
79301W        W71225  10.270   6.758  51.514
79302W        W71226  41.691  43.205  52.860
79303W        W71227  31.709  12.251  53.794
79304W        W71228  40.722  35.224  51.961
79305W        W71229  20.732  44.712  53.777
79306W        W71230  32.245  41.230  50.152
79307W        W71231  32.210  23.754  51.509
79308W        W71232  20.730  41.683  50.161
79309W        W71233   1.268   4.277  51.063
79310W        W71234  40.720  15.257  51.969
79311W        W71235   1.765  27.711  53.349
79312W        W71236  44.691  37.689  52.876
79313W        W71237  13.733  29.742  51.968
79314W        W71238  44.219   3.767  51.955
79315W        W71239   8.759  15.765  53.322
79316W        W71240  46.192  23.226  53.811
79317W        W71241  35.715   4.778  51.972
79318W        W71242  16.746  13.272  51.949
79319W        W71243  31.213  48.177  52.862
79320W        W71244  42.707  29.748  49.703
79321W        W71245  39.727  38.695  49.678
79322W        W71246  13.232  23.219  51.977
79323W        W71247  44.680  46.680  52.435
79324W        W71248   9.235  15.246  50.603
79325W        W71249   0.286  38.216  51.075
79326W        W71250   4.773  37.238  50.154
79327W        W71251  35.206   7.287  51.959
79328W        W71252  15.734  32.221  51.952
79329W        W71253  11.239  43.686  53.326
79330W        W71254   2.250  17.754  52.428
79331W        W71255  29.208  48.211  53.349
79332W        W71256  22.762  11.256  53.806
79333W        W71257  39.226  17.725  52.417
79334W        W71258  16.730  21.233  50.137
79335W        W71259  17.755  47.220  52.413
79336W        W71260  10.747  43.716  51.495
79337W        W71261  23.248  32.723  51.969
79338W        W71262  10.766   6.750  53.343
79339W        W71263  44.221   1.292  51.060
79340W        W71264  15.769   3.260  52.419
79341W        W71265  12.736  12.259  50.594
79342W        W71266   0.269  37.702  53.776
79343W        W71267  15.267   3.747  52.871
79344W        W71268  13.242  29.211  49.698
79345W        W71269  26.712  43.724  53.813
79346W        W71270  27.716  44.227  50.595
79347W        W71271  27.706  36.218  52.878
79348W        W71272   5.741  26.722  51.532
79349W        W71273  40.701  15.727  51.520
79350W        W71274   0.267  47.175  50.599
79351W        W71275   0.751  47.212  51.513
79352W        W71276  26.251  27.745  50.139
79353W        W71277   5.263  21.217  49.694
79354W        W71278  43.699  23.711  52.428
79355W        W71279   8.244  43.204  51.965
79356W        W71280  14.237  46.186  52.865
79357W        W71281   8.243  13.275  49.688
79358W        W71282  33.241  34.202  53.336
79359W        W71283   1.262  11.776  51.504
79360W        W71284  42.697   1.793  52.413
79361W        W71285  21.252  15.764  53.785
79362W        W71286   9.771   8.772  50.165
79363W        W71287  13.236  12.754  50.605
79364W        W71288  27.745  41.727  51.493
79365W        W71289  18.737  35.198  51.075
79366W        W71290   9.760  16.224  50.594
79367W        W71291  16.244  29.206  53.356
79368W        W71292  12.751   7.750  53.801
79369W        W71293   1.264   0.749  52.901
79370W        W71294   7.737   0.296  53.347
79371W        W71295  19.231   9.263  51.977
79372W        W71296   9.770  28.724  53.339
79373W        W71297  17.756   9.776  53.354
79374W        W71298  33.204  35.716  50.135
79375W        W71299  39.734  10.740  52.434
79376W        W71300  27.247   8.741  51.054
79377W        W71301  45.680  16.243  50.139
79378W        W71302  20.725   5.764  53.329
79379W        W71303  18.742   9.239  51.059
79380W        W71304  25.753  18.743  53.790
79381W        W71305  41.206   4.271  51.976
79382W        W71306   8.263  40.710  51.075
79383W        W71307  45.692  24.740  49.706
79384W        W71308  16.725  43.696  50.620
79385W        W71309   8.747  10.255  52.427
79386W        W71310  15.261  34.742  53.345
79387W        W71311  13.269  24.757  53.360
79388W        W71312  29.746  30.240  53.339
79389W        W71313  23.259   9.248  53.815
79390W        W71314   7.773  23.223  51.964
79391W        W71315  10.268  16.725  51.971
79392W        W71316  37.699   9.244  52.422
79393W        W71317  22.259  19.240  52.438
79394W        W71318  15.752  26.707  50.581
79395W        W71319  45.679  31.733  51.970
79396W        W71320   0.270  12.755  51.534
79397W        W71321  47.708  47.202  50.584
79398W        W71322  25.221  22.217  52.864
79399W        W71323  34.705  23.757  53.350
79400W        W71324   7.254  25.754  51.974
79401W        W71325  12.247  22.254  49.694
79402W        W71326  20.720  15.256  51.079
79403W        W71327  31.244  41.194  53.810
79404W        W71328  17.752  32.742  51.507
79405W        W71329  35.707  42.228  51.055
79406W        W71330   2.790  24.721  50.578
79407W        W71331  16.730   4.257  50.121
79408W        W71332  31.726  45.220  50.608
79409W        W71333  40.683  41.186  53.352
79410W        W71334  41.215   6.240  52.889
79411W        W71335  26.238  10.752  52.431
79412W        W71336  38.724  16.244  50.148
79413W        W71337  14.243  30.745  51.951
79414W        W71338   5.778  24.254  51.058
79415W        W71339  48.193  45.682  53.811
79416W        W71340  42.684   1.254  51.070
79417W        W71341  26.721  13.244  51.511
79418W        W71342  17.259  18.230  51.972
79419W        W71343  34.214  42.726  53.807
79420W        W71344  24.725  11.740  53.790
79421W        W71345   0.267  16.253  51.494
79422W        W71346  40.729  43.226  51.978
79423W        W71347   3.774  38.195  51.979
79424W        W71348   1.260  21.264  50.613
79425W        W71349  38.734  39.197  49.670
79426W        W71350  36.710  44.700  51.044
79427W        W71351   1.248   1.767  49.710
79428W        W71352  15.267  25.727  52.415
79429W        W71353  43.192  22.743  49.698
79430W        W71354  18.757  34.703  52.408
79431W        W71355   3.754  16.750  49.682
79432W        W71356  45.223  40.205  51.505
79433W        W71357  14.730  15.731  50.139
79434W        W71358   9.738   9.273  52.864
79435W        W71359  29.719   9.734  53.808
79436W        W71360  28.730  46.675  51.979
79437W        W71361  45.223  41.217  51.947
79438W        W71362  47.717  12.239  52.445
79439W        W71363  44.681  18.719  53.783
79440W        W71364  15.273   0.763  52.900
79441W        W71365  13.272  33.230  51.034
79442W        W71366  22.714  26.718  51.990
79443W        W71367  15.236  37.218  51.515
79444W        W71368  47.710  23.716  51.059
79445W        W71369  47.173  43.703  53.335
79446W        W71370  45.719  41.197  51.514
79447W        W71371  25.717  26.236  52.878
79448W        W71372  29.226  17.239  53.332
79449W        W71373   8.247  45.210  52.422
79450W        W71374   0.790   4.781  50.146
79451W        W71375  11.761  19.231  50.594
79452W        W71376  10.780  24.214  52.442
79453W        W71377  32.743  26.749  51.046
79454W        W71378  36.717  29.238  51.506
79455W        W71379  19.260  42.206  50.156
79456W        W71380  10.771  16.726  52.422
79457W        W71381  25.741  32.206  51.978
79458W        W71382  42.716  23.223  50.132
79459W        W71383  18.248   0.777  51.963
79460W        W71384   8.243  32.706  51.511
79461W        W71385  44.676  45.221  53.777
79462W        W71386  36.714   7.759  50.126
79463W        W71387   5.771  14.252  51.989
79464W        W71388  21.249  30.237  51.041
79465W        W71389   8.286  36.204  51.045
79466W        W71390  36.716   0.777  51.948
79467W        W71391  31.247  15.261  49.670
79468W        W71392  36.223   4.756  51.947
79469W        W71393  39.693  27.719  50.599
79470W        W71394   6.768  27.713  53.798
79471W        W71395  20.761  26.717  53.346
79472W        W71396  19.762  27.214  51.959
79473W        W71397  29.717  42.189  53.778
79474W        W71398  34.693  35.226  49.685
79475W        W71399  10.269  37.702  49.666
79476W        W71400  30.240  44.214  53.358
79477W        W71401  11.235  12.256  51.987
79478W        W71402  22.721  45.681  51.506
79479W        W71403  14.739  33.696  53.348
79480W        W71404  23.237  27.708  51.053
79481W        W71405   9.242  13.229  52.878
79482W        W71406   5.255   2.293  49.702
79483W        W71407   3.292  11.744  51.525
79484W        W71408  47.220  14.258  53.776
79485W        W71409  28.743  25.212  50.152
79486W        W71410  43.706  33.741  51.960
79487W        W71411   3.763  38.727  53.805
79488W        W71412  14.260  43.201  51.523
79489W        W71413  36.206  10.774  53.339
79490W        W71414  38.699  45.721  53.357
79491W        W71415   8.748  20.765  53.328
79492W        W71416   5.742  37.728  51.517
79493W        W71417  37.737  12.248  52.890
79494W        W71418  38.722  10.746  52.441
79495W        W71419  31.735   7.276  49.669
79496W        W71420  26.216  17.739  52.418
79497W        W71421  10.734  39.226  52.433
79498W        W71422  42.184  18.746  52.403
79499W        W71423  40.231  19.260  50.614
79500W        W71424  43.214  17.230  50.601
79501W        W71425  28.707   8.741  52.872
79502W        W71426  39.193   5.745  49.666
79503W        W71427  20.717  28.711  50.585
79504W        W71428   3.768   1.288  50.590
79505W        W71429  32.708  36.709  51.958
79506W        W71430  36.710  10.761  50.598
79507W        W71431  30.724  41.210  52.872
79508W        W71432  20.231  26.707  53.812
79509W        W71433  45.693  20.720  53.796
79510W        W71434  10.778  23.712  51.495
79511W        W71435  37.695  26.226  53.779
79512W        W71436  16.762  13.244  52.864
79513W        W71437   9.261  43.680  50.578
79514W        W71438  34.213  32.710  51.960
79515W        W71439  29.208  12.270  52.878
79516W        W71440  25.238  42.197  53.779
79517W        W71441  45.210  45.202  53.355
79518W        W71442  37.234  28.737  50.610
79519W        W71443  35.195  45.686  51.051
79520W        W71444   6.270  35.734  49.675
79521W        W71445  12.741  25.743  52.903
79522W        W71446   5.771  25.221  52.867
79523W        W71447  22.724  30.714  53.355
79524W        W71448  47.209  47.176  51.977
79525W        W71449  20.225  31.239  49.706
79526W        W71450  19.222  32.722  49.682
79527W        W71451  40.196   4.747  53.782
79528W        W71452  31.248  32.734  50.127
79529W        W71453   3.773  19.767  51.502
79530W        W71454  42.714  44.185  51.962
79531W        W71455  44.219  34.711  52.436
79532W        W71456  24.751  32.704  51.968
79533W        W71457  10.776  22.262  52.431
79534W        W71458  37.209  45.676  50.130
79535W        W71459  40.717  36.694  50.599
79536W        W71460  11.268  12.768  52.421
79537W        W71461  14.742  22.240  51.958
79538W        W71462  21.245  15.235  53.793
79539W        W71463  18.760  42.213  52.879
79540W        W71464  33.223   3.751  53.784
79541W        W71465  29.703  15.743  50.583
79542W        W71466  19.233  28.713  49.669
79543W        W71467  23.734  37.695  51.063
79544W        W71468  28.717   6.770  52.434
79545W        W71469  23.230  14.760  53.774
79546W        W71470  42.194  29.704  52.444
79547W        W71471  29.239  46.178  53.346
79548W        W71472  25.738   7.775  52.893
79549W        W71473  24.721  19.735  52.904
79550W        W71474  32.198  29.709  51.037
79551W        W71475   4.269  34.715  50.124
79552W        W71476  30.720  45.216  49.688
79553W        W71477  34.741  10.279  50.158
79554W        W71478  45.204  42.193  53.351
79555W        W71479  27.211  12.735  49.678
79556W        W71480  44.226  31.733  49.681
79557W        W71481  23.730   2.275  53.331
79558W        W71482  46.718  38.222  51.967
79559W        W71483  13.233  42.199  52.864
79560W        W71484  19.731  29.711  53.799
79561W        W71485   8.282   7.755  51.974
79562W        W71486  16.770   7.776  49.696
79563W        W71487  17.754  39.702  53.341
79564W        W71488  21.216   6.770  50.126
79565W        W71489   3.778  22.237  51.050
79566W        W71490  37.238  21.221  52.409
79567W        W71491  16.751  44.211  49.682
79568W        W71492   2.783  26.231  50.601
79569W        W71493   3.284   6.781  53.322
79570W        W71494  31.217   7.768  53.804
79571W        W71495  20.266  15.272  52.442
79572W        W71496  42.188  32.221  52.883
79573W        W71497  11.237  14.743  51.061
79574W        W71498  13.263  17.743  52.865
79575W        W71499  16.752   8.738  51.072
79576W        W71500  25.233   4.786  51.515
79577W        W71501  29.716  21.756  51.527
79578W        W71502   0.783  10.744  50.134
79579W        W71503  43.698  13.737  49.693
79580W        W71504  11.246  25.742  51.036
79581W        W71505  12.733  22.732  52.431
79582W        W71506  39.210   2.789  51.520
79583W        W71507  30.213  22.234  50.156
79584W        W71508  32.722  16.731  51.066
79585W        W71509  12.278   1.267  52.902
79586W        W71510  35.215  45.679  51.528
79587W        W71511   7.776  12.768  51.958
79588W        W71512  10.267  25.216  51.046
79589W        W71513  15.768  17.732  52.864
79590W        W71514  34.218   4.260  51.061
79591W        W71515  32.222  19.754  49.678
79592W        W71516  40.707  14.746  51.990
79593W        W71517  14.248  47.215  50.158
79594W        W71518  12.740   1.793  50.154
79595W        W71519  29.209  21.221  52.898
79596W        W71520  44.222  29.706  50.605
79597W        W71521  12.256  43.715  51.987
79598W        W71522  12.267   4.250  50.134
79599W        W71523  24.221   6.284  51.986
79600W        W71524  46.699  44.204  50.581
79601W        W71525  33.718   7.763  49.664
79602W        W71526  44.180  14.734  51.518
79603W        W71527   7.760  41.714  50.135
79604W        W71528  10.747  15.752  51.037
79605W        W71529  46.677  23.222  52.877
79606W        W71530  23.257   3.786  50.163
79607W        W71531   6.267  23.216  53.338
79608W        W71532  36.736  14.234  50.583
79609W        W71533  42.205   2.260  53.811
79610W        W71534  39.715  46.710  49.678
79611W        W71535  42.712  44.719  52.896
79612W        W71536  36.210   0.293  52.873
79613W        W71537  36.730  29.232  51.062
79614W        W71538  21.253  40.691  53.325
79615W        W71539  18.743  16.734  53.343
79616W        W71540  35.701  23.744  51.493
79617W        W71541  25.244  34.206  51.952
79618W        W71542  47.700  28.235  51.527
79619W        W71543  15.255   2.290  51.507
79620W        W71544   8.760  34.236  50.125
79621W        W71545  43.194   9.755  50.138
79622W        W71546  41.716   0.288  51.968
79623W        W71547  35.238  31.199  51.051
79624W        W71548  14.265  12.277  52.896
79625W        W71549  12.774  44.210  50.588
79626W        W71550  15.732  20.748  53.784
79627W        W71551  24.723   8.238  52.897
79628W        W71552  44.703  42.705  53.792
79629W        W71553  13.256   4.280  49.681
79630W        W71554  41.208  22.249  53.783
79631W        W71555  25.234  18.727  51.949
79632W        W71556  30.706  46.712  53.327
79633W        W71557  44.204   5.741  52.446
79634W        W71558  18.758  17.760  51.974
79635W        W71559  44.184  42.726  51.528
79636W        W71560   5.744  16.744  52.418
79637W        W71561  34.218  26.241  50.163
79638W        W71562  42.213   7.244  50.141
79639W        W71563  27.223   6.742  52.426
79640W        W71564  14.759   3.266  51.062
79641W        W71565  48.218   2.760  52.446
79642W        W71566  19.242  13.257  53.322
79643W        W71567  11.256  32.217  50.606
79644W        W71568   1.760  19.245  49.667
79645W        W71569  32.216  33.219  50.157
79646W        W71570   7.244   3.747  53.773
79647W        W71571  38.690   9.251  51.050
79648W        W71572  27.229  12.772  52.412
79649W        W71573   5.244  33.735  51.512
79650W        W71574  20.735  32.705  51.042
79651W        W71575  12.761   0.769  50.622
79652W        W71576  15.230  21.762  53.791
79653W        W71577  12.254  48.215  50.123
79654W        W71578   3.288  38.698  52.865
79655W        W71579   4.750  43.191  49.702
79656W        W71580  24.717  18.264  53.318
79657W        W71581  25.234  28.740  51.955
79658W        W71582  42.203  26.750  51.519
79659W        W71583   9.273  42.711  52.415
79660W        W71584  42.690  35.239  50.622
79661W        W71585  13.270  27.752  51.951
79662W        W71586  30.705  44.710  49.703
79663W        W71587   2.785  34.733  53.808
79664W        W71588  14.246  11.272  51.967
79665W        W71589  32.739  23.243  53.808
79666W        W71590  45.692  39.225  50.580
79667W        W71591  29.744  20.732  51.494
79668W        W71592   6.278  28.734  50.590
79669W        W71593  24.752   4.280  51.972
79670W        W71594  34.221  14.236  50.597
79671W        W71595   1.794  41.698  51.055
79672W        W71596  27.212  20.761  51.521
79673W        W71597  46.687   8.265  53.808
79674W        W71598   2.266   6.250  50.159
79675W        W71599   2.761  17.228  53.350
79676W        W71600  12.753   7.251  51.987
79677W        W71601   4.745   2.278  50.126
79678W        W71602  33.238  21.239  53.346
79679W        W71603   0.277  21.736  53.331
79680W        W71604  13.232   9.249  52.424
79681W        W71605   0.759   1.779  53.774
79682W        W71606  30.740  24.249  52.407
79683W        W71607  11.779  42.682  50.591
79684W        W71608   4.262  40.712  51.036
79685W        W71609  16.241  27.732  51.064
79686W        W71610  38.686  36.692  51.520
79687W        W71611  28.749  26.232  52.418
79688W        W71612  40.700  32.738  50.592
79689W        W71613  20.739   9.253  53.320
79690W        W71614  36.195  12.242  53.809
79691W        W71615  10.249  21.241  52.882
79692W        W71616   7.284   4.791  51.041
79693W        W71617  36.709  11.239  52.435
79694W        W71618  12.233  15.260  49.696
79695W        W71619  41.204  34.212  49.669
79696W        W71620  33.218  39.687  53.775
79697W        W71621  12.765  28.744  50.607
79698W        W71622   5.289   6.269  51.038
79699W        W71623  37.223  42.708  50.165
79700W        W71624  23.228   2.266  52.429
79701W        W71625  30.233  22.752  52.426
79702W        W71626  10.771  48.193  53.797
79703W        W71627   4.788  24.740  52.419
79704W        W71628  37.199  41.690  53.347
79705W        W71629  20.220  33.213  52.880
79706W        W71630  19.750  40.723  51.502
79707W        W71631  34.214  47.677  50.613
79708W        W71632  36.209  42.682  49.686
79709W        W71633  12.248  46.685  50.152
79710W        W71634  12.248   8.746  50.134
79711W        W71635   2.779   7.282  49.699
79712W        W71636  25.253   2.267  53.343
79713W        W71637  23.723  29.707  53.808
79714W        W71638  46.197   1.772  50.152
79715W        W71639  34.699   7.265  51.045
79716W        W71640  30.706  37.222  50.126
79717W        W71641  45.689  12.252  51.535
79718W        W71642   6.255  10.259  51.958
79719W        W71643   6.282  28.221  51.534
79720W        W71644   0.791  43.699  50.591
79721W        W71645  42.214  12.731  50.147
79722W        W71646   7.753  28.752  51.501
79723W        W71647  29.252   7.270  50.622
79724W        W71648   6.279  16.752  52.873
79725W        W71649  45.705  47.202  49.709
79726W        W71650  24.244  20.762  50.592
79727W        W71651   9.783  35.735  53.788
79728W        W71652  23.737  34.736  52.868
79729W        W71653  42.210  33.701  52.415
79730W        W71654  31.703  32.730  51.064
79731W        W71655  36.236  15.733  51.529
79732W        W71656   9.249  23.240  52.879
79733W        W71657  13.760  18.737  53.342
79734W        W71658  44.224  44.206  53.773
79735W        W71659  43.681  22.735  51.043
79736W        W71660   4.768  42.694  53.361
79737W        W71661  24.236  45.702  53.344
79738W        W71662  39.209  38.689  52.447
79739W        W71663  22.238   1.296  51.977
79740W        W71664  44.224  22.256  51.503
79741W        W71665  15.225  35.225  53.319
79742W        W71666   1.769  23.222  49.694
79743W        W71667  10.280  25.235  53.337
79744W        W71668  18.237   5.258  51.967
79745W        W71669  29.742  47.199  49.673
79746W        W71670  31.225  26.222  51.497
79747W        W71671   5.754  29.736  51.521
79748W        W71672   4.268  43.220  52.432
79749W        W71673  48.177  25.726  49.707
79750W        W71674  21.750  43.710  50.138
79751W        W71675  19.758  11.738  52.425
79752W        W71676  47.218  26.725  50.588
79753W        W71677  12.246   4.791  51.074
79754W        W71678   4.786  34.721  51.499
79755W        W71679  15.233   7.771  49.666
79756W        W71680  10.780   4.755  51.511
79757W        W71681  26.249   6.261  53.333
79758W        W71682  23.245  46.185  51.991
79759W        W71683   8.245  17.239  50.599
79760W        W71684  11.251  33.724  51.077
79761W        W71685  22.762  13.249  52.406
79762W        W71686  20.734  46.190  50.141
79763W        W71687  24.725  43.696  51.059
79764W        W71688  32.707  20.761  50.600
79765W        W71689  19.740  26.253  49.693
79766W        W71690  26.733  44.221  49.702
79767W        W71691  38.226  19.766  53.336
79768W        W71692   2.293  11.243  51.059
79769W        W71693   4.269  21.238  53.808
79770W        W71694   2.292  21.262  53.330
79771W        W71695  32.231  44.198  53.815
79772W        W71696  31.212   6.268  51.512
79773W        W71697  46.189  12.261  53.805
79774W        W71698   3.275   5.767  51.978
79775W        W71699  37.732  14.772  53.813
79776W        W71700  41.721  30.737  53.814
79777W        W71701  42.719  42.703  50.593
79778W        W71702   1.281   7.738  51.957
79779W        W71703  42.210  32.211  50.591
79780W        W71704  28.252  39.223  49.666
79781W        W71705   6.267  43.721  53.334
79782W        W71706  48.199   5.257  49.690
79783W        W71707   2.252   4.245  53.337
79784W        W71708  15.743  24.253  53.804
79785W        W71709   0.259  33.209  52.413
79786W        W71710  21.748  36.224  53.335
79787W        W71711   3.769  32.714  50.158
79788W        W71712  40.722   5.761  52.441
79789W        W71713  23.722  39.707  53.355
79790W        W71714  32.231   2.766  51.506
79791W        W71715  37.718  42.210  50.583
79792W        W71716  15.738  42.720  50.158
79793W        W71717  24.719  18.754  52.904
79794W        W71718  38.206  46.693  50.161
79795W        W71719  14.745  27.725  51.964
79796W        W71720  20.251  22.223  49.670
79797W        W71721  18.756  48.198  49.709
79798W        W71722  33.699  23.747  53.359
79799W        W71723  19.220  29.747  49.685
79800W        W71724  14.728  13.260  53.781
79801W        W71725   6.769  41.690  51.519
79802W        W71726  47.173  16.752  52.420
79803W        W71727  30.700  44.719  52.876
79804W        W71728  35.711  37.210  51.074
79805W        W71729   8.240  25.252  53.328
79806W        W71730  10.760   6.250  49.679
79807W        W71731  17.729  22.251  50.149
79808W        W71732  34.198  13.277  50.142
79809W        W71733  21.219  16.231  50.581
79810W        W71734  19.731  28.709  49.686
79811W        W71735  46.212  22.731  51.504
79812W        W71736  15.265  26.215  51.953
79813W        W71737   6.762  22.226  51.076
79814W        W71738  40.218  27.707  50.592
79815W        W71739   5.760  12.275  49.691
79816W        W71740  29.744  17.725  50.604
79817W        W71741  24.756  22.714  53.779
79818W        W71742  27.749  39.703  53.354
79819W        W71743  16.744  15.756  52.897
79820W        W71744  46.219  17.245  50.142
79821W        W71745   1.766   4.254  53.354
79822W        W71746  13.744  38.721  52.861
79823W        W71747  34.215  46.712  51.951
79824W        W71748  36.203  41.194  49.702
79825W        W71749  25.229  43.680  51.987
79826W        W71750  19.245  42.191  51.057
79827W        W71751  33.201  31.213  53.346
79828W        W71752  25.226  13.740  50.607
79829W        W71753  14.271   0.287  51.963
79830W        W71754  42.701  34.204  52.884
79831W        W71755  47.186  29.749  52.439
79832W        W71756  43.186  47.716  51.983
79833W        W71757  43.202   1.789  51.954
79834W        W71758  41.209  30.209  51.074
79835W        W71759  45.179  16.736  51.963
79836W        W71760   6.262  19.219  50.594
79837W        W71761  45.202   8.256  53.780
79838W        W71762  40.210   5.289  50.139
79839W        W71763  13.273  47.693  51.976
79840W        W71764  15.760  10.772  50.579
79841W        W71765  46.198  17.733  51.982
79842W        W71766  25.744  45.692  51.034
79843W        W71767  46.179  27.226  51.065
79844W        W71768  18.233  44.206  50.142
79845W        W71769  30.720  44.184  53.790
79846W        W71770  22.214  33.207  53.321
79847W        W71771  15.232  27.750  50.608
79848W        W71772   8.770  42.208  51.046
79849W        W71773  23.717  25.242  53.802
79850W        W71774  37.691  16.268  50.599
79851W        W71775  21.224  41.689  49.701
79852W        W71776  23.733  22.745  50.577
79853W        W71777  21.755   3.774  50.122
79854W        W71778  27.229  23.220  51.975
79855W        W71779  33.219  44.699  51.532
79856W        W71780  10.759  35.731  52.421
79857W        W71781  14.755  44.192  50.122
79858W        W71782   4.785  10.280  52.447
79859W        W71783   5.286   0.766  52.436
79860W        W71784   2.750  12.769  49.686
79861W        W71785  19.750  36.699  49.692
79862W        W71786  43.687  13.748  53.335
79863W        W71787  44.681  27.207  50.130
79864W        W71788  16.226   4.249  49.709
79865W        W71789  47.207  31.713  51.064
79866W        W71790  36.194   1.774  50.163
79867W        W71791   6.744  12.267  51.060
79868W        W71792  37.712  20.734  50.581
79869W        W71793  26.716  12.237  52.423
79870W        W71794  23.713  37.729  50.594
79871W        W71795  26.721  19.246  52.893
79872W        W71796  29.721  38.204  52.447
79873W        W71797  48.218  18.767  51.497
79874W        W71798   2.760  37.195  53.802
79875W        W71799  37.712  23.256  51.989
79876W        W71800  23.244  46.720  51.986
79877W        W71801   4.759  12.747  53.772
79878W        W71802  39.727  48.181  53.816
79879W        W71803  42.706  36.195  50.140
79880W        W71804  28.224   7.739  53.334
79881W        W71805  23.726  12.737  50.612
79882W        W71806  14.760  22.242  52.862
79883W        W71807  37.222  11.738  51.491
79884W        W71808  47.699   4.265  50.585
79885W        W71809  19.223  20.744  51.510
79886W        W71810  22.248  41.687  51.068
79887W        W71811  31.709   9.741  53.802
79888W        W71812  29.719  17.761  53.789
79889W        W71813  43.695  28.231  49.682
79890W        W71814   5.756  26.728  50.122
79891W        W71815  13.268  10.253  50.582
79892W        W71816   5.289  11.739  53.804
79893W        W71817  31.740   8.766  52.897
79894W        W71818  42.226   3.275  49.669
79895W        W71819  20.235  29.239  50.615
79896W        W71820  23.721  46.217  51.040
79897W        W71821  46.674  14.231  53.344
79898W        W71822  12.737  42.203  51.973
79899W        W71823  29.710   7.784  52.883
79900W        W71824  27.753   9.242  52.876
79901W        W71825  47.182  14.748  53.783
79902W        W71826  36.225  47.193  49.705
79903W        W71827  45.217  37.723  53.773
79904W        W71828  20.734  20.253  52.421
79905W        W71829   4.744   8.765  53.773
79906W        W71830  15.749  34.239  50.583
79907W        W71831   2.251  37.719  53.327
79908W        W71832  41.216  38.688  51.503
79909W        W71833  25.235  31.724  51.044
79910W        W71834   1.797  13.268  50.619
79911W        W71835  33.723  10.745  53.324
79912W        W71836  13.774  35.716  51.493
79913W        W71837  26.256  14.229  50.613
79914W        W71838  45.679  12.738  49.670
79915W        W71839  28.724  20.727  51.066
79916W        W71840  32.726  15.754  52.445
79917W        W71841  10.279  14.744  51.518
79918W        W71842  27.248  33.719  53.809
79919W        W71843  13.774  17.723  53.352
79920W        W71844  30.209  38.699  49.708
79921W        W71845  39.726   7.257  50.600
79922W        W71846  38.211  23.733  53.813
79923W        W71847  18.754  44.192  53.322
79924W        W71848  24.720  21.760  51.070
79925W        W71849  34.729  36.195  49.704
79926W        W71850   0.773  21.259  51.522
79927W        W71851  23.721  33.228  52.412
79928W        W71852  42.207  29.732  51.977
79929W        W71853  29.734  15.755  52.418
79930W        W71854  41.208  37.212  53.788
79931W        W71855  15.743  36.696  51.520
79932W        W71856  30.700  38.229  51.072
79933W        W71857  18.761  30.245  51.526
79934W        W71858  21.761  21.715  50.584
79935W        W71859   0.280   4.271  49.694
79936W        W71860   5.747  35.737  53.774
79937W        W71861  15.226  37.702  53.804
79938W        W71862  29.206  21.262  51.970
79939W        W71863   8.748  38.236  51.948
79940W        W71864  25.714  27.733  51.991
79941W        W71865  19.250   1.288  53.357
79942W        W71866  43.179  11.776  51.063
79943W        W71867   1.748  28.236  50.580
79944W        W71868  44.205  11.259  51.951
79945W        W71869  10.747  35.218  50.578
79946W        W71870  35.231   1.796  50.578
79947W        W71871  17.758  23.740  53.358
79948W        W71872  34.709  11.268  53.347
79949W        W71873  23.749  24.716  52.407
79950W        W71874  41.706  46.201  51.959
79951W        W71875  40.713   8.248  51.074
79952W        W71876  26.248  21.264  49.710
79953W        W71877  37.224  44.198  53.806
79954W        W71878  27.214  38.209  51.517
79955W        W71879  21.225  41.720  53.794
79956W        W71880  31.703  17.747  49.665
79957W        W71881  12.731  21.725  50.590
79958W        W71882  41.203  19.268  51.985
79959W        W71883   4.278  26.213  53.812
79960W        W71884   5.248   6.751  52.435
79961W        W71885   3.791  19.235  50.583
79962W        W71886  38.200   1.261  50.578
79963W        W71887   6.747  20.232  53.345
79964W        W71888  18.755  28.227  53.324
79965W        W71889   1.285  23.726  49.705
79966W        W71890  30.741  33.232  52.864
79967W        W71891  46.188  23.237  52.901
79968W        W71892  37.211  10.263  53.345
79969W        W71893  25.247  38.698  51.991
79970W        W71894  16.766  43.701  51.526
79971W        W71895  33.214   8.258  52.407
79972W        W71896  39.190  34.721  50.606
79973W        W71897  34.705  26.208  50.601
79974W        W71898  21.749  24.232  49.672
79975W        W71899  41.690  23.221  50.620
79976W        W71900   5.289  31.216  53.357
79977W        W71901  37.704  14.747  51.973
79978W        W71902  44.183  40.216  51.039
79979W        W71903  17.225  32.699  51.509
79980W        W71904  18.724  31.201  53.333
79981W        W71905  18.229  24.248  52.403
79982W        W71906  33.741  15.247  50.612
79983W        W71907  12.775  28.231  52.897
79984W        W71908  35.232  24.715  52.441
79985W        W71909  25.723  14.762  53.333
79986W        W71910  40.204  48.211  53.813
79987W        W71911   4.265  45.224  52.893
79988W        W71912   3.777  42.712  53.802
79989W        W71913   0.298  48.175  53.331
79990W        W71914   6.780  17.726  53.788
79991W        W71915  40.719  26.720  51.970
79992W        W71916   0.767  26.214  52.879
79993W        W71917   7.259  10.746  50.124
79994W        W71918  21.260  38.231  53.806
79995W        W71919  44.703  41.185  51.521
79996W        W71920   4.283  43.183  51.040
79997W        W71921  19.225  43.683  50.584
79998W        W71922  39.712   7.770  51.973
79999W        W71923   3.250  34.734  52.427
80000W        W71924  15.736  16.738  49.697
80001W        W71925  26.735  22.218  51.514
80002W        W71926  24.236  31.704  50.159
80003W        W71927  42.227  44.704  50.139
80004W        W71928  38.234  38.211  52.422
80005W        W71929  40.725  46.191  53.317
80006W        W71930  17.260  22.726  51.530
80007W        W71931  27.250  20.736  51.069
80008W        W71932   4.763  33.202  51.050
80009W        W71933  13.767  18.728  51.959
80010W        W71934  39.233   6.751  50.622
80011W        W71935  44.725  18.764  51.988
80012W        W71936  22.714   7.740  50.615
80013W        W71937  38.237  45.211  51.051
80014W        W71938   8.741  24.711  51.507
80015W        W71939  16.272  21.751  50.584
80016W        W71940   9.244  14.259  52.868
80017W        W71941  34.725   6.255  50.158
80018W        W71942  22.245  19.225  52.863
80019W        W71943   5.779  31.208  49.674
80020W        W71944  16.749  48.208  53.788
80021W        W71945  23.239  42.214  51.500
80022W        W71946  41.211  22.228  51.513
80023W        W71947  43.221  26.214  52.435
80024W        W71948  19.252  45.686  50.583
80025W        W71949  41.191  39.723  51.966
80026W        W71950  21.257  34.195  51.528
80027W        W71951  46.701  40.193  49.672
80028W        W71952  11.766  41.218  52.418
80029W        W71953   2.276  12.245  53.779
80030W        W71954  39.226  33.226  51.501
80031W        W71955  35.710  37.704  51.074
80032W        W71956  19.263  34.235  50.597
80033W        W71957  13.265  47.676  51.521
80034W        W71958  24.212  33.216  51.960
80035W        W71959  23.219  41.184  49.672
80036W        W71960  45.708  21.717  51.065
80037W        W71961  35.237   1.266  52.861
80038W        W71962  36.240  20.732  52.896
80039W        W71963  13.268   2.277  51.983
80040W        W71964  29.204  37.692  52.408
80041W        W71965  31.242  40.216  52.883
80042W        W71966   1.778  37.209  49.703
80043W        W71967  32.216  46.188  53.774
80044W        W71968  42.682  19.717  52.407
80045W        W71969  36.733  10.749  52.875
80046W        W71970  47.714  33.219  51.986
80047W        W71971  24.233  45.191  52.869
80048W        W71972  12.258  35.706  50.142
80049W        W71973  25.225  25.739  51.491
80050W        W71974  24.711  45.199  51.988
80051W        W71975  18.265  29.214  50.584
80052W        W71976  35.236  48.190  51.966
80053W        W71977  31.225  11.240  49.671
80054W        W71978  33.228  37.690  52.431
80055W        W71979  44.214  40.707  52.431
80056W        W71980  13.731   5.785  51.526
80057W        W71981  28.243  37.208  49.691
80058W        W71982  24.238  35.739  53.791
80059W        W71983  20.242  31.708  51.503
80060W        W71984  32.732  30.204  51.529
80061W        W71985   0.286  18.257  51.962
80062W        W71986   4.779  40.731  52.409
80063W        W71987  42.704  33.197  53.357
80064W        W71988  31.225  10.780  51.951
80065W        W71989  11.256  14.254  50.148
80066W        W71990  33.721   9.738  52.881
80067W        W71991   3.745  31.202  50.610
80068W        W71992  37.700  32.729  51.520
80069W        W71993   0.751  23.224  51.952
80070W        W71994   1.261   7.264  51.491
80071W        W71995  17.767   9.263  53.782
80072W        W71996  12.244  19.251  52.866
80073W        W71997  17.734  18.230  51.073
80074W        W71998   5.285  10.267  49.672
80075W        W71999  48.195  20.766  51.505
80076W        W72000  25.721  12.770  51.962
80077W        W72001   0.751  27.720  52.867
80078W        W72002  44.715  15.255  51.533
80079W        W72003   3.270  45.713  53.782
80080W        W72004  14.239  30.719  52.429
80081W        W72005  18.752  37.217  51.492
80082W        W72006  38.707  24.250  51.952
80083W        W72007  27.248   1.256  53.355
80084W        W72008  29.212  12.242  52.421
80085W        W72009   8.770   8.775  51.959
80086W        W72010  27.716  19.728  50.594
80087W        W72011   8.268  13.273  50.127
80088W        W72012  43.195   5.776  53.318
80089W        W72013  12.755  26.753  53.327
80090W        W72014   6.278  12.251  53.788
80091W        W72015  24.230  12.775  50.137
80092W        W72016  32.726  12.774  52.427
80093W        W72017  34.201  40.197  50.158
80094W        W72018  32.702  17.725  52.444
80095W        W72019  42.709   4.280  51.074
80096W        W72020   5.252  14.260  50.596
80097W        W72021  39.711  19.252  52.885
80098W        W72022   0.253  36.224  51.521
80099W        W72023  43.714   5.285  50.149
80100W        W72024  39.197   7.745  51.497
80101W        W72025  42.716   2.750  50.152
80102W        W72026   5.766  35.718  51.530
80103W        W72027  11.734   2.278  49.678
80104W        W72028  33.702  35.239  51.503
80105W        W72029  28.714  34.698  51.072
80106W        W72030  21.250  29.236  49.703
80107W        W72031  47.210   0.769  51.509
80108W        W72032  18.720  41.188  50.578
80109W        W72033  25.246  26.219  51.514
80110W        W72034   0.276  47.173  53.774
80111W        W72035  28.752  40.187  49.675
80112W        W72036  34.211  21.755  53.801
80113W        W72037  36.730  45.200  53.777
80114W        W72038   2.772  29.725  52.873
80115W        W72039  12.741  35.231  49.667
80116W        W72040  21.742  38.219  51.511
80117W        W72041  40.712  20.730  50.607
80118W        W72042  10.234  34.203  51.981
80119W        W72043   4.786   2.290  49.706
80120W        W72044  41.185  15.273  53.346
80121W        W72045  38.693  45.204  52.429
80122W        W72046   5.775  10.776  51.060
80123W        W72047  19.230  21.262  53.793
80124W        W72048  14.767  23.227  50.611
80125W        W72049  15.273  16.238  51.947
80126W        W72050  24.719  37.210  50.159
80127W        W72051  35.232  34.212  49.709
80128W        W72052  31.220  42.722  50.160
80129W        W72053   1.289  45.702  52.413
80130W        W72054  16.764   3.249  51.048
80131W        W72055  42.198   1.265  50.603
80132W        W72056  37.700  25.247  52.877
80133W        W72057  41.219   9.242  53.335
80134W        W72058  33.218  46.683  51.042
80135W        W72059  41.722  16.228  50.134
80136W        W72060  36.201   6.772  51.961
80137W        W72061  47.221  40.706  53.347
80138W        W72062  41.705  33.732  51.500
80139W        W72063   6.753  43.207  51.962
80140W        W72064  37.695  16.736  53.780
80141W        W72065  37.237  35.732  50.599
80142W        W72066  47.697  44.194  50.155
80143W        W72067  12.764  32.215  52.902
80144W        W72068  44.185  21.254  53.806
80145W        W72069  35.217   5.754  52.872
80146W        W72070   0.790  24.750  51.530
80147W        W72071   9.275   7.746  51.975
80148W        W72072   3.287  39.210  51.495
80149W        W72073  21.263  36.711  52.870
80150W        W72074  47.681  30.701  51.037
80151W        W72075  19.733  36.207  51.508
80152W        W72076  43.213   6.777  52.896
80153W        W72077  19.744  30.248  52.415
80154W        W72078   4.252  26.737  50.610
80155W        W72079  43.197  14.748  51.981
80156W        W72080  44.199   1.279  50.134
80157W        W72081  39.202  47.204  53.814
80158W        W72082  27.730  16.742  51.948
80159W        W72083  32.217  36.733  53.322
80160W        W72084   8.768  43.683  52.868
80161W        W72085  43.190   4.778  53.785
80162W        W72086   8.756  40.187  53.776
80163W        W72087  27.726  18.767  50.149
80164W        W72088  43.193  34.698  52.873
80165W        W72089  37.226  11.258  50.602
80166W        W72090   7.282  32.222  51.506
80167W        W72091  18.751  13.247  50.612
80168W        W72092  20.231  13.277  51.497
80169W        W72093   0.252  41.684  49.695
80170W        W72094  20.760  43.727  49.676
80171W        W72095  27.731   7.242  53.332
80172W        W72096  10.781  39.713  52.876
80173W        W72097   2.282   7.755  53.782
80174W        W72098  47.673  38.718  51.949
80175W        W72099  27.705  28.214  53.776
80176W        W72100  47.720  41.714  51.527
80177W        W72101  22.260  15.729  52.404
80178W        W72102  45.694  40.211  53.329
80179W        W72103   1.783  13.766  50.592
80180W        W72104  18.250  18.243  52.444
80181W        W72105  17.752  44.722  51.078
80182W        W72106  32.240   3.787  52.407
80183W        W72107  45.178  27.724  51.524
80184W        W72108   8.249  41.205  51.509
80185W        W72109  14.726  32.242  50.141
80186W        W72110   9.771  11.247  50.579
80187W        W72111  11.742  14.728  50.605
80188W        W72112  22.217  25.211  53.787
80189W        W72113  20.740  28.241  51.035
80190W        W72114  10.263  26.748  51.068
80191W        W72115  27.743  37.703  52.900
80192W        W72116  35.726  42.725  50.616
80193W        W72117  25.741   2.768  52.900
80194W        W72118  16.740   0.264  53.807
80195W        W72119  42.202  13.273  49.705
80196W        W72120  42.208  35.702  53.342
80197W        W72121  15.752   6.284  51.947
80198W        W72122  31.233  18.731  50.580
80199W        W72123  17.249   5.782  49.689
80200W        W72124   3.254  16.739  51.949
80201W        W72125  33.724  46.688  50.581
80202W        W72126  16.266  26.753  52.406
80203W        W72127  41.211  46.710  51.495
80204W        W72128  18.759  24.252  52.873
80205W        W72129  27.711   6.241  52.884
80206W        W72130  31.721  40.710  51.950
80207W        W72131  18.235  33.712  49.686
80208W        W72132  20.236  28.239  52.419
80209W        W72133   8.273   8.278  52.407
80210W        W72134   1.254   9.741  53.780
80211W        W72135  34.202  12.232  50.611
80212W        W72136   3.757  13.749  50.604
80213W        W72137  15.730  19.247  51.065
80214W        W72138  42.713  12.771  53.335
80215W        W72139  27.740   7.286  49.676
80216W        W72140  44.220   5.743  50.595
80217W        W72141  28.745  30.226  53.327
80218W        W72142  17.268  22.762  52.865
80219W        W72143  14.238  19.251  49.675
80220W        W72144  28.732  29.207  51.493
80221W        W72145  38.189  14.246  49.689
80222W        W72146  46.184  21.736  50.163
80223W        W72147   2.791  48.171  52.871
80224W        W72148  41.215  15.770  51.948
80225W        W72149   7.748  47.700  52.425
80226W        W72150  22.255  36.692  50.161
80227W        W72151  35.218   5.747  51.037
80228W        W72152  37.195  33.198  51.957
80229W        W72153  19.761  14.257  53.799
80230W        W72154  27.226  27.751  53.319
80231W        W72155   1.756  39.213  50.580
80232W        W72156  25.712  45.198  51.987
80233W        W72157  30.742  32.738  51.044
80234W        W72158  35.239  42.681  49.688
80235W        W72159  33.230   2.247  53.787
80236W        W72160  36.218  36.696  52.884
80237W        W72161  19.266  29.250  49.690
80238W        W72162  20.263   6.249  49.708
80239W        W72163  25.710   9.771  51.527
80240W        W72164  30.744  27.724  50.589
80241W        W72165  40.226  46.212  49.698
80242W        W72166   6.264  42.683  51.051
80243W        W72167  15.739  24.738  50.596
80244W        W72168   0.256  14.274  51.525
80245W        W72169  17.721  37.227  52.868
80246W        W72170  20.744  14.768  50.148
80247W        W72171  10.764  13.272  52.890
80248W        W72172  15.732  21.719  51.056
80249W        W72173  13.260  16.246  50.141
80250W        W72174   9.236   4.250  53.360
80251W        W72175  30.719  47.679  51.977
80252W        W72176  30.701   2.746  51.491
80253W        W72177  19.752  30.245  53.355
80254W        W72178   6.781  28.728  50.607
80255W        W72179  25.222  33.233  51.510
80256W        W72180  13.260  31.725  51.525
80257W        W72181  34.726  27.753  53.812
80258W        W72182   1.298  11.264  53.331
80259W        W72183  41.214  46.191  51.947
80260W        W72184  29.730  36.220  50.143
80261W        W72185  38.729  47.711  52.867
80262W        W72186   8.737  35.693  53.797
80263W        W72187  13.742  33.219  53.816
80264W        W72188   9.761  34.226  50.591
80265W        W72189  29.213  48.195  49.684
80266W        W72190  11.281  12.766  53.353
80267W        W72191   2.763  46.697  51.524
80268W        W72192  23.714   2.763  52.888
80269W        W72193  29.247  30.712  50.141
80270W        W72194  18.758  11.236  51.964
80271W        W72195  39.723  43.195  53.331
80272W        W72196   2.751   8.243  52.406
80273W        W72197  27.731  23.742  53.817
80274W        W72198  31.211  39.719  53.343
80275W        W72199  41.225  29.705  49.689
80276W        W72200  39.188  21.227  52.861
80277W        W72201   1.289  21.225  52.422
80278W        W72202  35.702   6.775  51.061
80279W        W72203  43.701  44.710  51.510
80280W        W72204  42.227  44.709  53.813
80281W        W72205   7.766  24.750  52.897
80282W        W72206  25.241  25.241  49.676
80283W        W72207   6.261  28.249  53.796
80284W        W72208  15.238   1.747  53.774
80285W        W72209   2.247  26.234  52.885
80286W        W72210  21.241  33.743  52.433
80287W        W72211  26.251  41.212  52.426
80288W        W72212  22.743  25.746  53.323
80289W        W72213  27.248  47.703  53.813
80290W        W72214  38.201  32.734  52.902
80291W        W72215  30.703  20.724  51.499
80292W        W72216  27.238  42.727  51.955
80293W        W72217  26.750  17.251  50.125
80294W        W72218  38.229  35.728  52.412
80295W        W72219   2.247  12.730  49.687
80296W        W72220  11.750  27.704  52.872
80297W        W72221  27.235   4.279  51.053
80298W        W72222   2.747  24.240  51.952
80299W        W72223  28.214  20.749  51.958
80300W        W72224  40.185  23.238  52.872
80301W        W72225  29.222  34.215  49.672
80302W        W72226  48.205  37.709  49.705
80303W        W72227  48.177   8.739  49.667
80304W        W72228  12.729   8.768  52.421
80305W        W72229  16.267  12.232  51.502
80306W        W72230   5.272   2.747  49.682
80307W        W72231  18.758  40.699  51.509
80308W        W72232  39.692  43.719  52.898
80309W        W72233  32.700  21.717  50.605
80310W        W72234  27.729  10.262  53.815
80311W        W72235   6.266  34.198  51.948
80312W        W72236  24.722   8.752  49.686
80313W        W72237  26.709  32.720  53.341
80314W        W72238  13.757  38.193  51.516
80315W        W72239  11.274  10.753  49.696
80316W        W72240  41.714  27.225  53.809
80317W        W72241  44.211  13.272  50.166
80318W        W72242  14.245  43.701  51.975
80319W        W72243  12.745  32.246  51.034
80320W        W72244  13.767  35.239  52.874
80321W        W72245  29.722  41.201  51.988
80322W        W72246  26.207  25.712  51.973
80323W        W72247  13.276  34.699  50.154
80324W        W72248  38.704  19.256  51.073
80325W        W72249  28.725  29.223  50.577
80326W        W72250  14.752  24.736  52.867
80327W        W72251   5.784   2.255  52.904
80328W        W72252   8.756  45.181  53.781
80329W        W72253   6.283  17.225  50.123
80330W        W72254  43.182  31.717  53.777
80331W        W72255  45.695   3.245  51.955
80332W        W72256   4.255  28.712  50.153
80333W        W72257  17.259  23.237  52.894
80334W        W72258  29.748  45.214  49.688
80335W        W72259  43.179  10.234  51.498
80336W        W72260  23.711  29.709  49.700
80337W        W72261  30.709  42.200  53.775
80338W        W72262  40.210   6.261  50.606
80339W        W72263  15.253  46.193  53.342
80340W        W72264  21.742  18.751  53.813
80341W        W72265  29.720  35.733  49.670
80342W        W72266  43.727   0.291  52.888
80343W        W72267  44.725  45.209  49.698
80344W        W72268  34.733  42.209  50.578
80345W        W72269  27.242  41.218  49.684
80346W        W72270  32.731   0.258  51.519
80347W        W72271  39.189  28.713  53.808
80348W        W72272  37.693   0.296  50.164
80349W        W72273  43.190  15.773  49.704
80350W        W72274  11.272  20.237  50.139
80351W        W72275   7.753   5.748  52.416
80352W        W72276  15.730  15.725  51.075
80353W        W72277  14.763  29.728  49.703
80354W        W72278   0.750  35.199  53.324
80355W        W72279   6.781   1.254  52.424
80356W        W72280   2.257  33.735  51.044
80357W        W72281  39.193  48.220  53.785
80358W        W72282   7.761  37.703  52.861
80359W        W72283   1.290  37.207  52.431
80360W        W72284  19.724  16.238  53.320
80361W        W72285  10.743  15.246  53.792
80362W        W72286  31.217  36.716  52.417
80363W        W72287   9.265  27.735  52.409
80364W        W72288  16.749  44.718  50.161
80365W        W72289  34.737  45.191  52.900
80366W        W72290  25.750  10.262  50.163
80367W        W72291  43.217   4.770  52.878
80368W        W72292   5.271  31.247  51.968
80369W        W72293  28.740  22.263  52.875
80370W        W72294  20.729  30.240  51.960
80371W        W72295  37.211   3.260  51.034
80372W        W72296  37.735  29.228  50.155
80373W        W72297   6.741   3.257  52.896
80374W        W72298  45.679  23.259  50.604
80375W        W72299  21.259  44.685  53.361
80376W        W72300  30.717  10.748  52.895
80377W        W72301   3.785  17.232  53.789
80378W        W72302  28.717  38.234  52.887
80379W        W72303  10.266  26.706  51.516
80380W        W72304   5.282  44.184  51.520
80381W        W72305  30.742  15.749  53.790
80382W        W72306  19.746  38.221  51.034
80383W        W72307  22.719  32.718  52.870
80384W        W72308  10.772   6.275  53.331
80385W        W72309  35.726  40.733  49.667
80386W        W72310  18.255   5.266  52.403
80387W        W72311   2.746  47.693  50.147
80388W        W72312  21.264  46.684  50.595
80389W        W72313  38.232  31.215  51.977
80390W        W72314  47.175   7.746  49.689
80391W        W72315  48.208  43.207  53.789
80392W        W72316  37.207  37.236  52.431
80393W        W72317  13.231  24.712  51.526
80394W        W72318  21.728  22.715  52.436
80395W        W72319  37.194   0.284  51.053
80396W        W72320  37.196  12.757  51.521
80397W        W72321  38.727  45.182  51.066
80398W        W72322  18.740  14.234  49.666
80399W        W72323  23.255   0.272  50.620
80400W        W72324  38.702   4.287  50.619
80401W        W72325  40.725  15.246  53.780
80402W        W72326  41.682  15.749  50.137
80403W        W72327   3.262  43.187  50.128
80404W        W72328   1.255  35.225  50.579
80405W        W72329  29.742   3.778  51.949
80406W        W72330  20.248  27.740  51.989
80407W        W72331  11.780  33.700  50.122
80408W        W72332   1.782   7.270  50.591
80409W        W72333   6.267  10.260  49.668
80410W        W72334  46.696  45.208  50.600
80411W        W72335  24.244  14.265  52.446
80412W        W72336  11.277  25.730  51.524
80413W        W72337  29.244   9.770  53.800
80414W        W72338   5.288   2.765  53.802
80415W        W72339  12.266  20.243  53.333
80416W        W72340   3.782  28.714  53.337
80417W        W72341  35.239  21.729  51.058
80418W        W72342   4.284  27.206  51.975
80419W        W72343  35.236  34.702  51.046
80420W        W72344  30.247  46.680  51.041
80421W        W72345  13.746  13.763  50.127
80422W        W72346   3.261  16.761  53.783
80423W        W72347  42.700   5.285  50.144
80424W        W72348  12.230  22.248  52.874
80425W        W72349  25.231   9.264  49.679
80426W        W72350  11.258  37.189  51.061
80427W        W72351  46.199  42.225  50.613
80428W        W72352   8.752  27.714  53.816
80429W        W72353   3.246  27.248  51.075
80430W        W72354   5.742  24.737  50.599
80431W        W72355  20.261  16.256  51.504
80432W        W72356  27.709  17.246  53.353
80433W        W72357  36.239  20.747  50.617
80434W        W72358  31.743  19.219  49.676
80435W        W72359  15.231  42.194  53.787
80436W        W72360  19.254  23.731  51.491
80437W        W72361  48.182  14.750  53.327
80438W        W72362  44.683  35.202  51.065
80439W        W72363   4.275  40.729  50.585
80440W        W72364  22.727  27.214  53.810
80441W        W72365  37.209   7.747  53.336
80442W        W72366  29.244  18.239  51.510
80443W        W72367  11.768  36.221  51.492
80444W        W72368  37.219  47.211  51.052
80445W        W72369   2.772  25.743  51.983
80446W        W72370  26.247   1.789  53.814
80447W        W72371  36.202  33.722  51.962
80448W        W72372  32.245  36.226  51.981
80449W        W72373  39.700   3.262  50.132
80450W        W72374  17.749  35.205  52.872
80451W        W72375  23.753  39.729  51.504
80452W        W72376  21.226  12.255  51.039
80453W        W72377  13.754  14.249  49.672
80454W        W72378  39.693  37.719  49.679
80455W        W72379  22.240  43.719  51.036
80456W        W72380   2.792  33.195  49.685
80457W        W72381   9.264   2.289  50.594
80458W        W72382  34.699  11.248  52.866
80459W        W72383  19.242  24.234  51.961
80460W        W72384   9.758  47.718  52.892
80461W        W72385  11.764  32.739  53.323
80462W        W72386   3.745  21.263  52.416
80463W        W72387  30.717   0.763  53.348
80464W        W72388  18.227  26.219  51.984
80465W        W72389  16.263  40.696  52.438
80466W        W72390  32.246  30.742  52.416
80467W        W72391  38.201  19.266  50.137
80468W        W72392  10.239   1.275  52.891
80469W        W72393  44.720  30.241  52.866
80470W        W72394  35.233  45.685  52.883
80471W        W72395  44.686  32.701  52.870
80472W        W72396  16.765  38.717  52.413
80473W        W72397  36.196   0.773  49.665
80474W        W72398  40.202  44.692  49.708
80475W        W72399  14.746   3.770  51.964
80476W        W72400  46.219  13.746  51.045
80477W        W72401  46.682  18.748  53.817
80478W        W72402  17.254  39.194  50.152
80479W        W72403  38.727  41.714  51.496
80480W        W72404  46.217  17.769  50.605
80481W        W72405  19.225  43.210  53.811
80482W        W72406  14.737  37.710  53.321
80483W        W72407  10.251   8.767  51.975
80484W        W72408  48.209   3.772  51.947
80485W        W72409  31.721  40.695  49.678
80486W        W72410   5.245  45.208  53.352
80487W        W72411   3.248  25.251  50.136
80488W        W72412  43.206  15.270  53.337
80489W        W72413   6.745  20.765  49.680
80490W        W72414   8.268  16.228  52.890
80491W        W72415  23.222  29.715  51.057
80492W        W72416  24.232  37.214  53.353
80493W        W72417  36.196  35.719  53.777
80494W        W72418  32.224   7.773  49.692
80495W        W72419  24.232  30.249  51.509
80496W        W72420  47.686  17.726  51.952
80497W        W72421  12.232  39.208  51.511
80498W        W72422   0.282  21.716  51.517
80499W        W72423  23.737  19.243  52.419
80500W        W72424  27.235  22.732  52.431
80501W        W72425  45.707  44.716  51.516
80502W        W72426  17.764  23.715  53.794
80503W        W72427  10.240  24.230  51.046
80504W        W72428  39.691  23.215  51.977
80505W        W72429  33.709  14.755  51.049
80506W        W72430  31.236   4.284  53.355
80507W        W72431  11.257   5.784  49.700
80508W        W72432  21.737  36.225  52.867
80509W        W72433  41.683  11.755  53.809
80510W        W72434  31.245  23.732  51.046
80511W        W72435  45.719  14.269  51.057
80512W        W72436  35.726  27.237  50.128
80513W        W72437   6.289  46.675  52.420
80514W        W72438  22.236  42.187  50.157
80515W        W72439   3.268  27.717  50.151
80516W        W72440  28.746  18.729  52.902
80517W        W72441  29.738  33.216  51.979
80518W        W72442   6.757  42.723  49.686
80519W        W72443  18.265  26.735  51.507
80520W        W72444   1.292  43.697  51.077
80521W        W72445   6.242   2.257  53.777
80522W        W72446   8.783  20.744  51.492
80523W        W72447  34.725  14.271  50.583
80524W        W72448  16.722  22.214  51.988
80525W        W72449   1.775  32.737  51.987
80526W        W72450  20.763  31.200  53.324
80527W        W72451  26.228  47.173  51.490
80528W        W72452  23.213  19.248  52.882
80529W        W72453  17.248  47.221  52.863
80530W        W72454  48.206  47.205  53.319
80531W        W72455  14.759  20.739  51.057
80532W        W72456  44.702  16.226  53.807
80533W        W72457  14.274  20.224  51.965
80534W        W72458  16.753   2.749  51.985
80535W        W72459  16.240  40.184  49.682
80536W        W72460  26.751  44.215  50.584
80537W        W72461  29.737  32.235  50.611
80538W        W72462   3.778   4.286  53.812
80539W        W72463  28.232  47.202  51.043
80540W        W72464  10.275  19.224  51.037
80541W        W72465  30.201  24.246  50.140
80542W        W72466  34.211  33.744  50.126
80543W        W72467   6.784  10.759  51.493
80544W        W72468  18.754  14.245  51.965
80545W        W72469  28.224  22.733  51.514
80546W        W72470  29.212  16.241  51.071
80547W        W72471  43.693  11.732  51.511
80548W        W72472  39.713   4.245  50.616
80549W        W72473  36.724  14.241  51.960
80550W        W72474  22.221  37.737  50.122
80551W        W72475  25.749  13.744  52.878
80552W        W72476  11.735  26.712  52.883
80553W        W72477   4.750  28.735  49.666
80554W        W72478  15.253   0.282  49.669
80555W        W72479   5.743   0.788  52.440
80556W        W72480  30.715  21.224  50.580
80557W        W72481  47.677  30.213  49.675
80558W        W72482  32.743  32.744  51.984
80559W        W72483  41.197   4.760  49.703
80560W        W72484  26.710  22.236  52.440
80561W        W72485  24.742  16.271  52.411
80562W        W72486  12.734  40.716  53.792
80563W        W72487  16.741  21.723  53.800
80564W        W72488  46.679  25.241  53.789
80565W        W72489   8.264  33.244  52.893
80566W        W72490  47.682   5.249  53.348
80567W        W72491   0.752  25.756  51.059
80568W        W72492  14.736  36.720  49.667
80569W        W72493  19.735  33.210  51.068
80570W        W72494   4.247  45.222  51.061
80571W        W72495  25.745   3.750  53.347
80572W        W72496   3.785  33.203  50.605
80573W        W72497   5.777  14.244  51.042
80574W        W72498  12.732  18.256  53.318
80575W        W72499   8.782  17.233  52.904
80576W        W72500  13.765   1.772  53.321
80577W        W72501  13.264  33.710  53.814
80578W        W72502  13.252   8.240  53.783
80579W        W72503  31.714  40.221  52.444
80580W        W72504   0.757  27.216  50.591
80581W        W72505  36.691  21.242  51.515
80582W        W72506  11.239  20.727  49.671
80583W        W72507  18.755  20.725  53.814
80584W        W72508  19.237  40.231  53.331
80585W        W72509  19.738  30.708  53.792
80586W        W72510  30.221  12.260  50.598
80587W        W72511  13.736  46.175  53.788
80588W        W72512  16.246   8.252  53.325
80589W        W72513  42.680   6.258  52.406
80590W        W72514   1.249  43.683  51.501
80591W        W72515  18.243  44.206  53.357
80592W        W72516   1.292  43.197  53.803
80593W        W72517  43.685  43.215  53.803
80594W        W72518  27.236  25.723  50.579
80595W        W72519  45.683  36.223  53.334
80596W        W72520  17.260   2.285  53.325
80597W        W72521  41.702   2.765  51.039
80598W        W72522   8.284  47.203  52.880
80599W        W72523  19.247  12.274  51.964
80600W        W72524   6.766  43.180  53.340
80601W        W72525  34.724  48.192  53.338
80602W        W72526  14.249   7.241  51.532
80603W        W72527  18.767  22.236  52.447
80604W        W72528  27.737   1.257  49.670
80605W        W72529  40.206  37.697  53.802
80606W        W72530  16.768  33.204  51.971
80607W        W72531  30.202   8.241  52.435
80608W        W72532   1.269  21.737  52.423
80609W        W72533  27.214  36.702  51.976
80610W        W72534  43.719   4.248  50.123
80611W        W72535  18.729  45.197  52.415
80612W        W72536  40.212  26.708  49.680
80613W        W72537  27.734  32.704  51.511
80614W        W72538  45.696  12.752  52.409
80615W        W72539  47.199  36.723  53.805
80616W        W72540  26.219  30.250  52.895
80617W        W72541   7.274  48.194  53.778
80618W        W72542  42.682   7.264  52.432
80619W        W72543  26.246  37.729  50.609
80620W        W72544  13.760   3.752  50.140
80621W        W72545  20.765   1.276  52.870
80622W        W72546  45.184  14.263  51.951
80623W        W72547  10.249  46.198  49.680
80624W        W72548  22.228  33.722  51.979
80625W        W72549  41.195  43.189  53.318
80626W        W72550  37.697  38.225  50.129
80627W        W72551  27.747  33.711  53.361
80628W        W72552   3.280  17.251  52.866
80629W        W72553   0.770   3.276  52.431
80630W        W72554  30.220  38.234  53.352
80631W        W72555  24.235   7.239  49.676
80632W        W72556  40.728  37.688  50.590
80633W        W72557  39.717  37.718  51.053
80634W        W72558  16.728  24.751  50.580
80635W        W72559  29.732   3.790  52.430
80636W        W72560  20.226  47.184  51.051
80637W        W72561   7.243  43.707  50.128
80638W        W72562  12.276  11.235  51.986
80639W        W72563  33.201  48.177  49.683
80640W        W72564   7.255   2.765  52.876
80641W        W72565  41.200  23.749  53.345
80642W        W72566  11.747  44.721  51.961
80643W        W72567  42.686  43.707  53.798
80644W        W72568  24.744  11.233  51.079
80645W        W72569  27.220   8.275  51.055
80646W        W72570  40.705  13.254  50.143
80647W        W72571   7.254  45.179  52.871
80648W        W72572  46.703   1.768  52.890
80649W        W72573  19.232   5.243  50.152
80650W        W72574  39.708   0.265  50.621
80651W        W72575  21.744  26.253  50.129
80652W        W72576  32.216  46.214  52.408
80653W        W72577  41.702  28.207  53.812
80654W        W72578  24.227  24.720  53.317
80655W        W72579  31.248  48.206  53.799
80656W        W72580  39.235  12.244  51.948
80657W        W72581  31.731  20.259  51.041
80658W        W72582  30.724  29.246  53.336
80659W        W72583  21.758  13.761  50.577
80660W        W72584  11.770  39.207  50.129
80661W        W72585  43.204  17.230  52.880
80662W        W72586  28.228  17.240  53.780
80663W        W72587  27.245   2.269  49.706
80664W        W72588  11.750  10.751  53.817
80665W        W72589  21.228  37.738  50.145
80666W        W72590  31.722  41.688  53.323
80667W        W72591  38.232  36.698  52.896
80668W        W72592   6.758  48.204  51.495
80669W        W72593   0.760   0.791  49.697
80670W        W72594  25.253  27.725  52.409
80671W        W72595  35.711  27.732  51.039
80672W        W72596  23.760  32.703  51.958
80673W        W72597   1.747   6.276  50.618
80674W        W72598  18.256  30.209  52.884
80675W        W72599  28.236  23.727  50.609
80676W        W72600  36.736  15.241  49.697
80677W        W72601  44.693   2.750  53.340
80678W        W72602  34.231  25.219  53.357
80679W        W72603  18.759  11.260  50.606
80680W        W72604  10.275  15.738  51.500
80681W        W72605  11.264  28.226  49.678
80682W        W72606  27.748   0.770  51.523
80683W        W72607   5.261   2.767  51.038
80684W        W72608   4.758  20.723  50.142
80685W        W72609  28.732  45.176  50.138
80686W        W72610  35.716  31.246  49.694
80687W        W72611  42.191  48.214  52.863
80688W        W72612  37.705  29.211  49.667
80689W        W72613  29.216  34.206  51.531
80690W        W72614  43.701  33.740  50.579
80691W        W72615   3.266  16.226  53.812
80692W        W72616  17.769   7.253  52.892
80693W        W72617  16.746  29.221  49.672
80694W        W72618  17.747   1.256  51.058
80695W        W72619  43.704  32.214  53.322
80696W        W72620  12.751  45.181  49.699
80697W        W72621  33.211  47.683  51.961
80698W        W72622  17.243  46.705  51.971
80699W        W72623  30.246  26.239  49.703
80700W        W72624  43.717  40.710  51.051
80701W        W72625  41.202  15.734  51.074
80702W        W72626  17.748  14.753  50.166
80703W        W72627   0.787  41.224  52.904
80704W        W72628  41.230   5.269  50.155
80705W        W72629   4.264  40.193  53.816
80706W        W72630  44.701  20.220  53.806
80707W        W72631  10.759  37.201  51.076
80708W        W72632  39.188  18.732  52.899
80709W        W72633  24.223  14.245  53.339
80710W        W72634   2.272  14.769  50.123
80711W        W72635  32.204  23.232  50.584
80712W        W72636  45.683  25.749  52.442
80713W        W72637  35.197  14.272  53.814
80714W        W72638   8.273  38.689  51.991
80715W        W72639  17.747  45.696  51.971
80716W        W72640  33.206  24.711  51.057
80717W        W72641  41.230  38.214  50.134
80718W        W72642  29.227  12.738  53.348
80719W        W72643  36.214   4.262  52.438
80720W        W72644   4.782  11.277  50.614
80721W        W72645  36.229  46.703  51.957
80722W        W72646   9.745   7.773  52.862
80723W        W72647  20.729  15.741  50.597
80724W        W72648   8.273  47.206  50.148
80725W        W72649  40.211  25.224  53.806
80726W        W72650  26.235  32.211  51.063
80727W        W72651  41.717  36.692  52.892
80728W        W72652  10.283  16.758  51.074
80729W        W72653   3.779   3.781  50.590
80730W        W72654  28.245  19.756  53.811
80731W        W72655  40.719  35.224  51.051
80732W        W72656  39.701  26.210  50.156
80733W        W72657   7.744  27.245  51.062
80734W        W72658   9.267  46.191  51.969
80735W        W72659   9.734  46.718  51.527
80736W        W72660   6.286  33.244  50.130
80737W        W72661   5.750  11.274  51.531
80738W        W72662  18.719   2.764  50.594
80739W        W72663  10.748  44.707  51.503
80740W        W72664  26.717   7.752  53.324
80741W        W72665   5.243  37.704  51.057
80742W        W72666  13.758   7.773  52.870
80743W        W72667   7.782  40.221  49.691
80744W        W72668  32.719  31.217  53.780
80745W        W72669  44.182  16.726  52.867
80746W        W72670  27.730   4.747  52.889
80747W        W72671  14.238  31.701  50.127
80748W        W72672  11.252   3.754  52.425
80749W        W72673  14.228  14.276  52.430
80750W        W72674  32.228  17.227  51.049
80751W        W72675  46.689   5.751  52.871
80752W        W72676  46.204   8.782  52.903
80753W        W72677  38.719   2.773  52.873
80754W        W72678   1.255  33.713  52.903
80755W        W72679  40.727  17.241  50.160
80756W        W72680  22.735   5.256  51.061
80757W        W72681   7.765   8.243  51.047
80758W        W72682  17.254  47.689  49.697
80759W        W72683   0.276  12.265  53.325
80760W        W72684  23.216  16.754  50.142
80761W        W72685  42.689  44.193  50.606
80762W        W72686   2.281   6.771  50.166
80763W        W72687   5.264  35.731  50.588
80764W        W72688  27.232   0.276  51.990
80765W        W72689  29.721  44.720  50.614
80766W        W72690  20.752   4.792  51.069
80767W        W72691  11.738  19.230  51.525
80768W        W72692  40.188  24.757  52.411
80769W        W72693  26.254  45.679  50.147
80770W        W72694   4.284   5.750  51.509
80771W        W72695  17.747  39.216  51.952
80772W        W72696  22.262  31.746  51.954
80773W        W72697   9.782  10.760  52.441
80774W        W72698  25.245  28.710  50.582
80775W        W72699  12.734  29.731  53.330
80776W        W72700  27.741   2.780  52.423
80777W        W72701  45.219  21.761  51.962
80778W        W72702  38.212  31.732  52.866
80779W        W72703  43.703  26.710  50.614
80780W        W72704  41.694   7.759  51.978
80781W        W72705  31.211  14.731  50.149
80782W        W72706   1.759  28.220  50.150
80783W        W72707  38.726  20.257  50.154
80784W        W72708   9.280  14.764  51.072
80785W        W72709  46.676  14.245  50.579
80786W        W72710   4.791  37.232  49.666
80787W        W72711  13.742   1.279  50.580
80788W        W72712  14.760  41.703  51.494
80789W        W72713  35.221  39.210  53.816
80790W        W72714  38.696  33.708  51.962
80791W        W72715  43.182  20.726  51.502
80792W        W72716   4.281  22.224  51.970
80793W        W72717  37.226  32.713  52.868
80794W        W72718  30.710  25.226  51.528
80795W        W72719  10.762  29.720  51.965
80796W        W72720  35.691   1.260  51.968
80797W        W72721  26.735   5.267  53.817
80798W        W72722  19.245   1.267  51.071
80799W        W72723  23.217   4.761  49.709
80800W        W72724  19.719  46.682  53.813
80801W        W72725   1.768   3.275  51.514
80802W        W72726  21.229  31.711  51.954
80803W        W72727   9.276  29.738  49.690
80804W        W72728   6.756   3.758  51.522
80805W        W72729  22.231  32.245  53.329
80806W        W72730  32.226  45.197  52.901
80807W        W72731  12.756  37.707  51.991
80808W        W72732  19.751  12.255  49.665
80809W        W72733  15.743   6.279  52.429
80810W        W72734  31.215  47.699  49.703
80811W        W72735  16.749  47.688  50.154
80812W        W72736  46.202  19.721  52.892
80813W        W72737   4.275  10.759  51.070
80814W        W72738  48.174  23.718  52.877
80815W        W72739  46.202  39.188  50.130
80816W        W72740  39.697  17.266  53.352
80817W        W72741  43.225  19.241  50.594
80818W        W72742  10.771  17.759  52.890
80819W        W72743  37.224  47.215  49.665
80820W        W72744  34.226  10.256  51.950
80821W        W72745  35.193  46.181  52.423
80822W        W72746   0.268   0.298  51.064
80823W        W72747  47.176  15.236  50.136
80824W        W72748   8.250  15.751  51.508
80825W        W72749  32.246  25.739  50.140
80826W        W72750   2.761  29.745  51.500
80827W        W72751  25.718  31.708  53.348
80828W        W72752  37.235   0.781  53.354
80829W        W72753  30.248  45.717  52.891
80830W        W72754   2.783   5.251  49.673
80831W        W72755  12.279  40.691  52.865
80832W        W72756  42.187   2.756  51.061
80833W        W72757  38.215  45.703  52.403
80834W        W72758  20.237  21.255  53.797
80835W        W72759   8.775  22.220  50.144
80836W        W72760  12.255  46.715  51.967
80837W        W72761  16.269  11.247  51.045
80838W        W72762  38.200  18.224  50.597
80839W        W72763  38.705   2.768  51.040
80840W        W72764  32.224  25.752  49.697
80841W        W72765  10.749  13.728  50.123
80842W        W72766  18.758   5.787  52.896
80843W        W72767  35.717   4.763  52.885
80844W        W72768  13.232  34.719  52.425
80845W        W72769  22.259   8.247  53.347
80846W        W72770   5.283  23.744  53.347
80847W        W72771  11.269  39.219  53.810
80848W        W72772  31.722  29.718  53.801
80849W        W72773  35.713  36.692  53.329
80850W        W72774  13.765  26.715  50.601
80851W        W72775  31.720  12.767  49.699
80852W        W72776  45.187  25.721  51.494
80853W        W72777   2.778  34.736  51.521
80854W        W72778  34.741  27.243  52.440
80855W        W72779   0.280  35.193  53.325
80856W        W72780  28.243   5.263  49.705
80857W        W72781  28.243  41.686  49.682
80858W        W72782  39.223  14.747  50.602
80859W        W72783  45.682   6.280  52.863
80860W        W72784  44.184   6.264  53.785
80861W        W72785  29.234   6.286  50.588
80862W        W72786  14.740  10.269  53.806
80863W        W72787   4.745   4.276  51.070
80864W        W72788   9.743  46.193  53.344
80865W        W72789   3.256   9.778  51.528
80866W        W72790  17.259  19.728  49.678
80867W        W72791  47.715  11.744  51.973
80868W        W72792   5.753   0.260  53.807
80869W        W72793  42.224   5.259  51.949
80870W        W72794   0.755  33.216  52.889
80871W        W72795  34.724  33.205  51.040
80872W        W72796  38.698   8.767  52.445
80873W        W72797  39.712  31.718  50.164
80874W        W72798  29.728  29.719  50.123
80875W        W72799  34.237  18.768  52.873
80876W        W72800   3.772   7.273  50.578
80877W        W72801  27.725  29.230  52.861
80878W        W72802  13.764  16.757  51.077
80879W        W72803  42.214  42.685  51.067
80880W        W72804  17.742  42.696  51.045
80881W        W72805  13.770  43.691  52.435
80882W        W72806  17.269  44.715  53.339
80883W        W72807  33.233  38.197  51.516
80884W        W72808  37.719  13.259  53.340
80885W        W72809   1.775  40.233  53.803
80886W        W72810  43.714  22.226  52.434
80887W        W72811  39.712  44.222  51.068
80888W        W72812  30.738  26.227  53.797
80889W        W72813  43.680   9.272  50.152
80890W        W72814  36.720  36.235  53.778
80891W        W72815   5.248  19.241  50.603
80892W        W72816  38.735   8.746  50.145
80893W        W72817  34.242  11.244  53.352
80894W        W72818   4.752  35.215  51.051
80895W        W72819  42.693  45.201  51.532
80896W        W72820  38.196  26.253  51.969
80897W        W72821  27.712  38.714  50.609
80898W        W72822  15.732  45.203  52.863
80899W        W72823  14.759  12.235  53.800
80900W        W72824  20.245  41.708  51.497
80901W        W72825  13.254   5.262  50.157
80902W        W72826  29.250   0.769  51.531
80903W        W72827  20.249   9.249  51.992
80904W        W72828  11.750  13.749  51.041
80905W        W72829  32.728  27.219  52.861
80906W        W72830  22.255  14.759  50.610
80907W        W72831  38.695   8.753  53.327
80908W        W72832  34.697  40.214  52.881
80909W        W72833  48.189  46.703  53.781
80910W        W72834  30.710  22.723  51.979
80911W        W72835  37.732  28.211  53.809
80912W        W72836  44.705  34.703  52.432
80913W        W72837  26.233  13.237  51.989
80914W        W72838  40.717  25.226  51.508
80915W        W72839  43.716   8.779  52.419
80916W        W72840  43.691  20.253  50.620
80917W        W72841  25.253  23.756  53.785
80918W        W72842  28.252  41.212  51.504
80919W        W72843   2.272  20.222  50.141
80920W        W72844  14.234  20.232  52.871
80921W        W72845  30.209   5.278  49.669
80922W        W72846  26.726  26.217  53.791
80923W        W72847   3.764   4.261  50.124
80924W        W72848  13.767  11.765  51.056
80925W        W72849  20.758  35.204  51.520
80926W        W72850   4.749   4.764  50.579
80927W        W72851  19.234  11.277  51.527
80928W        W72852  40.224   9.749  50.595
80929W        W72853  16.763  33.740  51.038
80930W        W72854   7.752  10.251  50.614
80931W        W72855  45.220   0.276  51.062
80932W        W72856  29.710  47.701  53.805
80933W        W72857  46.218  29.737  50.601
80934W        W72858  10.260  12.253  51.054
80935W        W72859  20.261  27.253  52.894
80936W        W72860  29.216  30.713  51.058
80937W        W72861  23.227  34.722  52.425
80938W        W72862  42.725  41.698  50.158
80939W        W72863  30.727   9.739  51.078
80940W        W72864  41.228  22.723  50.141
80941W        W72865  40.691  21.746  52.427
80942W        W72866  47.205  34.210  50.158
80943W        W72867  34.725   2.281  53.790
80944W        W72868  27.207  39.709  52.420
80945W        W72869   0.296  17.245  53.799
80946W        W72870  44.193  27.229  52.422
80947W        W72871  37.700  28.214  52.904
80948W        W72872  14.256  10.777  49.692
80949W        W72873  10.237  46.180  51.975
80950W        W72874  15.748  18.258  53.358
80951W        W72875   8.273  11.240  53.804
80952W        W72876  38.731  35.720  53.796
80953W        W72877  43.213   6.257  53.777
80954W        W72878   1.276   8.740  52.860
80955W        W72879   8.751  38.224  51.061
80956W        W72880   9.751  22.757  49.710
80957W        W72881  31.209  33.741  53.351
80958W        W72882  45.683  15.259  49.698
80959W        W72883  32.735  35.227  53.329
80960W        W72884  34.735  19.763  51.974
80961W        W72885  30.741  27.205  51.987
80962W        W72886  23.742  34.224  51.055
80963W        W72887   7.747  34.205  50.128
80964W        W72888  17.754  24.214  51.053
80965W        W72889  34.217  17.722  51.494
80966W        W72890   4.758  17.737  51.491
80967W        W72891  45.202  46.677  50.124
80968W        W72892   3.277  40.205  52.417
80969W        W72893  46.710  16.270  52.433
80970W        W72894  39.712  27.227  50.145
80971W        W72895  19.236   2.293  49.695
80972W        W72896  41.705  23.712  50.605
80973W        W72897   7.740  12.765  50.147
80974W        W72898  14.728  38.691  51.077
80975W        W72899  46.704  33.227  52.863
80976W        W72900  20.255  41.220  51.979
80977W        W72901  19.760  24.728  53.781
80978W        W72902  27.726  35.720  52.883
80979W        W72903  26.723  17.758  51.985
80980W        W72904   3.763  37.710  53.343
80981W        W72905  28.231  43.189  52.415
80982W        W72906  47.220  21.730  53.322
80983W        W72907   3.278  31.711  52.446
80984W        W72908  15.762  12.762  51.527
80985W        W72909   6.739  10.243  51.532
80986W        W72910   9.754  11.748  52.883
80987W        W72911  39.727  10.750  52.894
80988W        W72912  18.746  21.730  51.039
80989W        W72913  34.199   3.746  52.870
80990W        W72914  33.711  21.717  50.603
80991W        W72915  36.210  17.738  52.887
80992W        W72916  27.225  28.751  50.590
80993W        W72917   7.774  39.698  50.613
80994W        W72918  13.250  36.207  50.615
80995W        W72919   2.755  21.757  53.346
80996W        W72920   8.275  43.680  52.441
80997W        W72921  33.230  48.217  53.353
80998W        W72922  35.210  35.239  51.520
80999W        W72923   9.251  13.244  52.447
81000W        W72924  44.722  33.204  49.693
81001W        W72925  11.248  21.715  51.058
81002W        W72926  15.240  36.203  51.948
81003W        W72927  36.224   2.785  51.047
81004W        W72928  47.677  14.759  52.872
81005W        W72929  35.732  31.705  50.621
81006W        W72930  47.688  44.715  50.134
81007W        W72931  39.218  27.254  51.498
81008W        W72932  30.726  22.220  51.055
81009W        W72933  22.713  30.709  50.147
81010W        W72934  17.226  23.230  49.690
81011W        W72935  15.272  44.705  52.420
81012W        W72936   3.768  39.230  52.890
81013W        W72937  44.682  25.748  52.885
81014W        W72938  33.242  35.194  52.412
81015W        W72939  40.732   7.752  49.697
81016W        W72940  37.212  11.748  52.435
81017W        W72941  10.268   4.753  50.121
81018W        W72942  33.227  20.753  53.338
81019W        W72943  23.237  20.732  51.958
81020W        W72944   5.766   9.738  51.505
81021W        W72945  10.757   3.770  50.607
81022W        W72946  32.199  27.244  53.318
81023W        W72947  11.267  29.745  53.781
81024W        W72948  25.221   4.253  51.500
81025W        W72949  37.204  31.707  53.360
81026W        W72950  22.754  24.745  49.705
81027W        W72951  15.756  47.199  53.344
81028W        W72952  33.716   7.266  53.813
81029W        W72953  19.728  26.211  50.147
81030W        W72954  29.206  37.729  49.687
81031W        W72955  37.699  34.226  49.686
81032W        W72956  39.211  25.716  51.989
81033W        W72957   3.254  30.206  51.953
81034W        W72958  12.775  25.712  49.672
81035W        W72959  47.216  32.205  50.618
81036W        W72960  11.239  23.727  51.493
81037W        W72961  13.237  44.190  51.531
81038W        W72962  29.230  24.725  49.686
81039W        W72963  12.756  47.705  51.500
81040W        W72964   5.772   1.790  53.330
81041W        W72965  32.716  15.754  49.675
81042W        W72966  21.738   6.775  50.579
81043W        W72967  26.221  44.220  53.324
81044W        W72968   2.248  10.750  50.586
81045W        W72969  46.197   0.294  53.776
81046W        W72970   9.765  34.206  52.440
81047W        W72971  37.690  12.231  51.978
81048W        W72972  35.716   3.761  53.780
81049W        W72973  42.707  42.198  52.411
81050W        W72974   5.260  16.260  51.037
81051W        W72975   0.796  33.743  52.442
81052W        W72976  37.734   7.745  52.882
81053W        W72977  23.722  42.196  51.492
81054W        W72978  46.174  33.703  51.968
81055W        W72979  31.731  13.738  52.891
81056W        W72980  26.222  33.743  52.901
81057W        W72981  35.225  17.230  53.783
81058W        W72982   2.754  39.192  49.689
81059W        W72983   2.253   7.755  51.969
81060W        W72984  34.694   7.244  53.349
81061W        W72985   8.739  19.262  53.322
81062W        W72986  28.247  33.738  51.043
81063W        W72987  46.216  41.688  52.901
81064W        W72988   6.262  29.221  51.061
81065W        W72989   7.284  42.685  49.667
81066W        W72990   8.776  17.256  51.532
81067W        W72991   8.258  26.252  51.072
81068W        W72992  31.240   3.766  52.408
81069W        W72993   4.254  16.251  53.787
81070W        W72994  12.749  32.702  50.584
81071W        W72995  20.221   2.283  51.515
81072W        W72996  37.719  45.686  51.520
81073W        W72997  18.238  32.221  49.705
81074W        W72998  45.718  46.176  51.513
81075W        W72999   2.765  13.743  51.987
81076W        W73000  12.740  24.211  51.530
81077W        W73001  20.220   6.242  52.418
81078W        W73002  35.193  35.729  53.321
81079W        W73003  33.711   1.248  51.965
81080W        W73004   0.287  40.186  51.062
81081W        W73005  10.253  34.717  53.354
81082W        W73006   7.258  34.212  49.672
81083W        W73007  40.206   7.768  51.949
81084W        W73008  13.751   6.776  51.034
81085W        W73009  48.171   6.742  53.358
81086W        W73010  30.241  35.229  51.979
81087W        W73011  18.242  20.758  51.034
81088W        W73012  47.181  35.212  53.323
81089W        W73013  38.235   7.775  50.589
81090W        W73014   3.767  39.709  51.056
81091W        W73015  19.722  40.713  52.867
81092W        W73016  26.241  12.775  50.588
81093W        W73017  26.717  36.732  53.789
81094W        W73018   6.287   9.248  51.521
81095W        W73019  28.222  40.230  51.506
81096W        W73020  36.232  31.206  50.599
81097W        W73021  41.198   5.756  49.705
81098W        W73022  22.260   9.783  50.122
81099W        W73023  13.752  39.214  53.341
81100W        W73024   3.771  47.197  53.319
81101W        W73025   3.284  46.697  51.497
81102W        W73026  25.751   5.264  53.811
81103W        W73027  34.226  10.734  52.435
81104W        W73028  48.189  27.246  53.772
81105W        W73029   0.759  36.689  49.685
81106W        W73030  27.230   6.266  53.345
81107W        W73031  26.215  28.725  53.775
81108W        W73032  38.234  46.187  53.359
81109W        W73033  30.746  22.749  52.898
81110W        W73034  39.200  34.212  53.328
81111W        W73035   3.283   5.246  52.431
81112W        W73036   3.750  29.229  51.983
81113W        W73037  39.200   2.765  53.782
81114W        W73038  35.725  22.234  51.510
81115W        W73039  22.733  42.728  52.905
81116W        W73040   9.254   1.284  53.798
81117W        W73041   5.270  10.736  52.419
81118W        W73042  13.275  47.713  51.039
81119W        W73043  36.730  39.711  50.620
81120W        W73044  20.249  11.770  53.789
81121W        W73045   7.784  45.703  51.072
81122W        W73046  11.737  29.707  53.322
81123W        W73047  30.235   6.276  50.619
81124W        W73048  29.715  43.180  53.339
81125W        W73049   3.789  22.735  49.675
81126W        W73050  22.755   8.249  50.611
81127W        W73051  39.227  10.761  49.696
81128W        W73052  39.226  29.212  50.613
81129W        W73053  47.673  46.678  53.318
81130W        W73054  15.249   3.268  51.053
81131W        W73055   6.257  22.739  51.970
81132W        W73056  29.739  44.190  52.861
81133W        W73057  42.220  26.254  52.409
81134W        W73058  33.706  18.764  53.329
81135W        W73059  38.229  42.696  53.336
81136W        W73060  38.205  10.238  50.595
81137W        W73061   5.780  30.204  50.144
81138W        W73062  22.732   3.753  52.428
81139W        W73063  21.261  38.727  50.615
81140W        W73064  14.755   7.242  53.809
81141W        W73065  16.742  14.758  53.786
81142W        W73066   1.784  31.208  53.787
81143W        W73067  36.236  39.685  52.870
81144W        W73068  18.220   1.763  51.075
81145W        W73069  44.697   0.776  53.320
81146W        W73070  31.702  36.736  49.697
81147W        W73071  31.241  40.729  52.864
81148W        W73072  46.717  16.263  51.043
81149W        W73073   7.747  16.255  51.493
81150W        W73074  22.225  22.257  50.590
81151W        W73075  15.238  20.264  53.790
81152W        W73076  48.188   4.243  51.067
81153W        W73077   7.257  28.747  53.319
81154W        W73078  13.270  27.714  49.680
81155W        W73079  44.705  41.715  50.136
81156W        W73080  30.245  16.263  52.422
81157W        W73081   1.262  23.249  53.319
81158W        W73082  12.738  33.195  52.872
81159W        W73083  40.205  18.742  52.429
81160W        W73084   1.768  45.686  52.406
81161W        W73085  37.711  39.702  53.799
81162W        W73086  37.729  15.253  51.967
81163W        W73087  43.715  28.715  52.411
81164W        W73088  29.250  25.232  50.622
81165W        W73089  10.259   8.260  53.348
81166W        W73090  22.721  23.714  49.706
81167W        W73091  31.745   7.261  51.508
81168W        W73092  17.750  40.193  52.869
81169W        W73093   9.748  43.180  50.143
81170W        W73094  34.198  20.259  52.878
81171W        W73095  25.727   0.769  50.613
81172W        W73096   7.786  20.738  52.413
81173W        W73097  14.743  23.228  52.432
81174W        W73098  48.209  27.231  52.866
81175W        W73099   8.241   2.779  49.703
81176W        W73100  22.241  36.216  52.903
81177W        W73101  47.174  35.207  53.778
81178W        W73102   2.783  37.219  49.676
81179W        W73103  13.271  35.200  52.862
81180W        W73104  31.742  10.767  52.419
81181W        W73105  41.682  38.231  52.887
81182W        W73106  12.758  23.257  50.164
81183W        W73107  42.709  24.247  53.814
81184W        W73108  33.720  28.704  53.787
81185W        W73109   2.772  43.714  50.148
81186W        W73110  25.756   8.268  53.774
81187W        W73111  35.223  28.232  53.773
81188W        W73112  34.726  17.730  53.332
81189W        W73113  31.205  27.740  52.416
81190W        W73114  32.245  30.710  50.159
81191W        W73115  11.245   7.769  50.156
81192W        W73116  42.684   2.778  52.437
81193W        W73117  21.243   1.260  52.886
81194W        W73118  34.717  15.761  50.151
81195W        W73119  31.215  34.223  53.344
81196W        W73120  43.222   9.735  51.037
81197W        W73121  12.759  18.761  51.078
81198W        W73122  21.719  11.744  53.815
81199W        W73123  15.253  15.743  51.989
81200W        W73124  29.229  34.695  50.589
81201W        W73125   5.254  18.239  52.424
81202W        W73126   6.266  11.777  51.504
81203W        W73127  18.232  46.199  49.692
81204W        W73128   9.244  17.268  52.901
81205W        W73129  34.722  35.709  50.600
81206W        W73130  17.243  11.750  49.670
81207W        W73131   4.266   9.743  50.147
81208W        W73132   3.294  32.202  50.126
81209W        W73133   2.284   2.771  53.350
81210W        W73134  13.230  38.187  52.416
81211W        W73135   7.765  19.725  51.041
81212W        W73136  23.248  10.272  50.600
81213W        W73137   1.288  16.757  51.504
81214W        W73138  39.712  30.221  50.592
81215W        W73139  29.216  27.233  50.150
81216W        W73140   5.284  44.708  52.894
81217W        W73141  20.733  18.744  49.699
81218W        W73142  46.692   9.783  51.048
81219W        W73143   7.767  40.708  53.799
81220W        W73144  12.738  27.708  52.868
81221W        W73145   0.255  41.187  50.157
81222W        W73146  30.740  16.252  51.975
81223W        W73147  25.218  27.714  53.324
81224W        W73148  10.265   4.253  53.346
81225W        W73149  30.206   3.776  53.807
81226W        W73150  37.234  25.224  51.985
81227W        W73151   1.291  24.743  52.877
81228W        W73152  34.225  34.209  51.958
81229W        W73153  29.740  40.185  52.861
81230W        W73154  43.721  44.196  51.508
81231W        W73155  15.726  15.770  51.958
81232W        W73156  16.257   0.753  50.154
81233W        W73157  10.249   6.784  53.324
81234W        W73158   7.254  46.181  51.952
81235W        W73159   9.242  42.217  52.885
81236W        W73160   7.759  36.708  50.584
81237W        W73161  37.200  14.237  49.685
81238W        W73162  47.715   6.744  51.526
81239W        W73163   7.770   0.250  49.708
81240W        W73164  35.694  46.220  51.958
81241W        W73165  32.724   8.282  53.793
81242W        W73166  43.209  39.209  50.616
81243W        W73167  11.745  34.215  52.874
81244W        W73168   7.750  40.698  51.522
81245W        W73169  44.183  31.740  52.415
81246W        W73170  11.238  47.189  53.804
81247W        W73171  40.693  23.726  52.872
81248W        W73172  41.705   5.786  51.530
81249W        W73173  43.198   7.748  50.600
81250W        W73174  23.219  48.185  51.073
81251W        W73175  16.233   3.288  52.885
81252W        W73176  10.273  18.233  52.864
81253W        W73177  33.197  11.773  52.874
81254W        W73178   9.242  15.234  51.063
81255W        W73179  18.228  45.184  51.516
81256W        W73180  30.707   0.798  52.442
81257W        W73181  17.236  42.703  51.978
81258W        W73182  39.692  25.221  53.352
81259W        W73183  10.739  24.217  50.142
81260W        W73184   6.262   8.745  50.126
81261W        W73185  15.242  46.201  52.864
81262W        W73186  12.253  44.714  51.961
81263W        W73187  18.764  22.731  52.433
81264W        W73188  13.237  17.724  49.699
81265W        W73189   0.752   3.774  52.418
81266W        W73190  23.235   5.778  50.615
81267W        W73191  47.698  15.768  51.512
81268W        W73192  34.699  20.230  50.163
81269W        W73193  39.701  33.225  53.817
81270W        W73194  26.249  12.771  49.695
81271W        W73195   3.755  28.738  52.438
81272W        W73196  43.720   2.252  53.807
81273W        W73197  14.775  27.241  51.511
81274W        W73198  25.729  15.753  51.049
81275W        W73199  43.190   9.282  50.164
81276W        W73200  20.731   1.261  49.685
81277W        W73201   8.754  20.717  53.812
81278W        W73202  43.215  14.774  51.528
81279W        W73203  24.236   8.782  52.413
81280W        W73204  43.194   2.286  51.528
81281W        W73205  13.769   5.779  50.122
81282W        W73206  12.232  18.751  51.070
81283W        W73207  33.721  26.216  52.884
81284W        W73208  16.752  38.703  51.986
81285W        W73209  16.770  23.758  52.881
81286W        W73210  33.213  46.177  53.340
81287W        W73211   2.779  44.224  52.438
81288W        W73212   3.258  31.704  51.958
81289W        W73213  43.701  47.213  53.336
81290W        W73214   7.251  14.737  53.805
81291W        W73215  36.705   5.776  51.063
81292W        W73216  14.271   3.772  52.428
81293W        W73217  37.203   0.788  49.674
81294W        W73218  25.243  27.245  52.404
81295W        W73219  27.710  35.203  50.138
81296W        W73220  17.245  35.230  52.428
81297W        W73221  46.687  40.216  53.811
81298W        W73222  43.189  30.228  51.524
81299W        W73223  39.230  38.237  52.435
81300W        W73224  38.193  47.676  50.611
81301W        W73225   0.261   1.789  51.057
81302W        W73226   7.750  45.188  51.074
81303W        W73227  29.226   0.795  52.864
81304W        W73228   4.252   0.752  53.325
81305W        W73229  27.724  30.238  49.700
81306W        W73230  33.733  25.258  53.316
81307W        W73231  46.180   1.775  53.324
81308W        W73232  35.207  33.214  50.151
81309W        W73233  17.228  27.738  51.034
81310W        W73234   2.763  46.211  53.803
81311W        W73235  42.723  23.760  51.067
81312W        W73236  10.271  32.218  49.701
81313W        W73237  21.216  45.176  50.156
81314W        W73238  15.763  38.224  52.403
81315W        W73239   1.296  46.179  52.405
81316W        W73240  34.231  19.727  51.041
81317W        W73241  28.713   6.786  49.664
81318W        W73242  20.716  23.229  52.872
81319W        W73243  43.722  42.208  51.961
81320W        W73244  33.725  32.207  50.162
81321W        W73245  33.208  40.719  52.870
81322W        W73246  17.226  40.725  53.806
81323W        W73247  14.267  14.272  49.690
81324W        W73248  26.736  14.250  53.773
81325W        W73249  34.195  43.726  51.503
81326W        W73250  43.688  34.698  53.350
81327W        W73251  48.210  36.733  51.066
81328W        W73252  16.272  13.243  50.149
81329W        W73253  10.752  26.240  51.962
81330W        W73254   1.768  22.738  50.599
81331W        W73255  16.771   7.271  51.970
81332W        W73256  30.247  41.686  52.894
81333W        W73257  17.741  16.736  49.674
81334W        W73258  36.719  30.244  51.498
81335W        W73259  25.717   2.276  51.949
81336W        W73260  46.174  45.203  51.078
81337W        W73261  13.251  32.239  53.337
81338W        W73262  46.686  47.177  51.517
81339W        W73263  36.236  32.211  53.789
81340W        W73264   4.255  10.761  49.684
81341W        W73265  21.260  16.269  51.969
81342W        W73266  42.720  27.240  50.125
81343W        W73267   5.288  15.232  53.330
81344W        W73268  41.694  21.740  53.357
81345W        W73269  43.206  12.267  52.422
81346W        W73270  28.204  11.760  53.337
81347W        W73271  12.734  20.230  51.974
81348W        W73272  48.209  42.226  51.510
81349W        W73273  29.742   1.766  49.701
81350W        W73274  17.746   4.250  51.979
81351W        W73275  37.219   4.780  53.322
81352W        W73276  46.218  11.263  52.888
81353W        W73277  20.744  46.711  52.436
81354W        W73278   4.273  11.249  51.056
81355W        W73279  28.734  21.218  52.445
81356W        W73280  25.253  10.767  53.815
81357W        W73281  21.727  31.208  52.435
81358W        W73282  28.205   9.757  49.706
81359W        W73283  13.266  25.750  53.803
81360W        W73284  26.753  31.703  50.123
81361W        W73285   7.282  16.741  50.129
81362W        W73286   1.291  32.744  50.159
81363W        W73287  44.721  45.218  51.971
81364W        W73288  43.215   5.760  51.962
81365W        W73289  26.214   3.256  52.898
81366W        W73290  42.691  46.203  53.332
81367W        W73291   8.251  23.252  51.988
81368W        W73292   2.753  17.724  51.517
81369W        W73293   6.264   3.286  53.341
81370W        W73294  35.238  16.273  50.131
81371W        W73295   3.292  10.739  50.122
81372W        W73296   5.753  10.772  53.792
81373W        W73297  41.211  21.244  49.675
81374W        W73298   1.261  47.695  52.899
81375W        W73299  32.706  20.761  50.134
81376W        W73300  23.758  33.713  50.157
81377W        W73301  12.237  42.728  50.124
81378W        W73302  37.215  40.688  53.792
81379W        W73303  26.231  35.232  52.903
81380W        W73304   7.251  20.260  51.959
81381W        W73305  42.224  36.214  49.689
81382W        W73306  12.735  27.729  50.139
81383W        W73307  29.242  35.224  52.427
81384W        W73308  20.256  34.232  49.678
81385W        W73309  11.736  10.745  52.441
81386W        W73310   8.274  40.209  50.154
81387W        W73311  10.277  21.722  51.948
81388W        W73312  30.236  17.762  53.355
81389W        W73313  12.742  19.747  50.588
81390W        W73314  34.234  42.189  50.164
81391W        W73315  20.259   9.736  53.809
81392W        W73316  12.266  22.236  50.142
81393W        W73317  23.744  30.714  49.670
81394W        W73318  37.712  19.249  51.519
81395W        W73319  26.733   8.772  50.582
81396W        W73320  43.706  25.241  52.871
81397W        W73321  31.245  10.737  50.604
81398W        W73322   1.797  38.699  50.607
81399W        W73323  45.685  15.270  50.583
81400W        W73324  46.702   1.748  51.495
81401W        W73325  27.737  26.736  51.042
81402W        W73326  22.229  11.238  51.526
81403W        W73327  28.249   0.293  50.591
81404W        W73328  30.707  20.749  50.599
81405W        W73329  46.691  39.705  52.879
81406W        W73330   9.253  35.737  50.153
81407W        W73331   2.751  43.185  51.951
81408W        W73332  25.246  18.244  53.319
81409W        W73333   8.273  15.734  53.794
81410W        W73334  35.740  33.712  50.130
81411W        W73335   6.778  13.235  49.684
81412W        W73336  29.747  14.768  51.036
81413W        W73337  25.753  29.716  52.899
81414W        W73338  38.714  26.707  51.514
81415W        W73339  12.242   7.751  53.326
81416W        W73340  22.725  40.705  53.787
81417W        W73341   8.262  35.703  53.776
81418W        W73342   1.748  43.214  51.525
81419W        W73343  31.698  27.245  50.159
81420W        W73344  22.215   7.744  53.804
81421W        W73345  28.725   5.783  51.952
81422W        W73346  16.269  17.741  52.891
81423W        W73347  27.252  17.727  51.530
81424W        W73348   0.774  36.221  51.521
81425W        W73349  16.228  23.719  51.508
81426W        W73350   6.260  18.255  52.865
81427W        W73351  34.697  26.752  53.780
81428W        W73352  45.711  17.761  53.777
81429W        W73353  20.730  32.726  53.804
81430W        W73354  46.181  41.226  52.898
81431W        W73355  21.753  40.718  49.692
81432W        W73356  17.721  38.712  51.046
81433W        W73357  38.196  43.697  53.330
81434W        W73358   9.282  29.749  53.777
81435W        W73359  31.730   8.743  52.416
81436W        W73360   5.769  21.718  50.581
81437W        W73361  19.236   4.262  52.865
81438W        W73362  47.201  43.727  52.896
81439W        W73363  11.273  11.235  51.047
81440W        W73364  12.756  23.759  51.071
81441W        W73365   3.762  10.746  49.675
81442W        W73366  36.720  41.689  50.161
81443W        W73367  16.234  26.752  51.987
81444W        W73368  19.230   8.771  49.678
81445W        W73369  43.211   1.754  52.447
81446W        W73370  13.754  25.749  53.328
81447W        W73371  18.260  18.743  49.705
81448W        W73372  24.240  30.730  50.594
81449W        W73373  38.220  21.258  53.816
81450W        W73374  23.737  30.226  49.675
81451W        W73375   6.765  32.726  51.502
81452W        W73376  28.218  25.709  51.982
81453W        W73377  12.738  23.734  53.792
81454W        W73378   2.773   8.758  51.058
81455W        W73379   4.745  17.741  49.707
81456W        W73380  28.211  30.208  51.055
81457W        W73381   3.262   2.294  51.043
81458W        W73382  41.221  36.193  52.882
81459W        W73383  23.721  40.195  53.789
81460W        W73384   9.755  38.706  52.438
81461W        W73385  27.751  31.233  51.049
81462W        W73386  15.734  11.258  51.054
81463W        W73387   0.784   1.276  52.421
81464W        W73388  40.684  17.222  51.958
81465W        W73389  18.728   9.270  50.123
81466W        W73390  40.707  19.740  49.698
81467W        W73391  17.739  40.217  53.775
81468W        W73392  45.188  32.241  53.354
81469W        W73393  31.727  20.251  52.888
81470W        W73394   2.273   5.743  51.527
81471W        W73395  16.261  39.695  51.979
81472W        W73396  47.192  16.745  50.158
81473W        W73397   4.291  23.223  50.139
81474W        W73398  34.694  23.749  50.140
81475W        W73399  46.186  13.262  49.668
81476W        W73400  18.232  12.755  53.789
81477W        W73401   4.292  22.733  50.613
81478W        W73402  36.707  40.233  50.602
81479W        W73403  17.764   5.279  53.790
81480W        W73404  18.236  29.203  51.526
81481W        W73405  31.727  29.728  51.954
81482W        W73406  33.208   5.241  50.603
81483W        W73407  29.733  17.766  50.163
81484W        W73408  10.251  10.267  50.125
81485W        W73409   6.274   3.254  52.860
81486W        W73410  15.755  37.734  52.878
81487W        W73411  35.706  37.220  52.407
81488W        W73412  12.759   2.756  51.529
81489W        W73413   4.270  36.229  53.316
81490W        W73414  31.726  48.174  53.353
81491W        W73415  40.227   2.771  52.873
81492W        W73416  47.196  37.728  52.905
81493W        W73417  16.723  26.232  50.601
81494W        W73418  23.735  37.216  52.883
81495W        W73419  35.725  10.767  49.682
81496W        W73420   7.238  48.176  49.683
81497W        W73421  24.233  19.226  52.903
81498W        W73422  29.735  25.245  51.034
81499W        W73423  45.705  42.701  53.328
81500W        W73424   9.280  48.172  49.679
81501W        W73425  20.227   7.264  53.351
81502W        W73426   1.797   7.247  52.433
81503W        W73427   4.252  37.220  49.671
81504W        W73428   7.239   0.253  52.438
81505W        W73429  48.216  33.715  53.338
81506W        W73430   6.776   4.761  52.447
81507W        W73431  29.719  26.708  50.136
81508W        W73432  47.201  19.267  50.614
81509W        W73433   7.784   2.767  49.666
81510W        W73434   4.261  36.724  49.679
81511W        W73435   4.770  41.685  53.342
81512W        W73436  17.721   6.246  52.406
81513W        W73437  20.757  13.746  51.512
81514W        W73438  17.249   8.272  49.710
81515W        W73439   4.275  38.237  51.979
81516W        W73440  37.196  39.734  53.356
81517W        W73441   8.252   7.270  52.898
81518W        W73442  14.269  19.229  53.793
81519W        W73443  41.728  16.755  52.904
81520W        W73444  10.780  43.688  50.123
81521W        W73445  16.228  32.210  51.059
81522W        W73446  33.734  33.245  52.423
81523W        W73447  41.214  25.712  51.956
81524W        W73448  42.690  39.187  52.441
81525W        W73449  20.234  45.179  53.316
81526W        W73450  14.238  20.734  50.596
81527W        W73451  39.196  26.744  50.586
81528W        W73452  44.181  20.243  50.602
81529W        W73453  24.728  25.748  51.950
81530W        W73454  27.242  11.259  52.874
81531W        W73455  39.215  11.276  50.129
81532W        W73456  33.214  25.225  52.425
81533W        W73457  34.730  31.236  51.521
81534W        W73458  28.712  20.726  50.164
81535W        W73459  18.245  30.224  49.678
81536W        W73460  35.704  47.219  51.987
81537W        W73461  44.218  33.727  51.076
81538W        W73462  23.731  15.762  53.320
81539W        W73463   4.749   3.280  51.060
81540W        W73464  16.754  25.213  53.795
81541W        W73465  44.199  16.765  51.073
81542W        W73466  31.730  19.747  50.596
81543W        W73467  40.220   3.282  49.703
81544W        W73468  29.746   7.785  53.359
81545W        W73469  24.740   8.752  50.163
81546W        W73470  27.251  28.717  50.123
81547W        W73471  40.226  30.232  53.320
81548W        W73472  21.730  37.703  52.866
81549W        W73473  22.761  15.232  52.888
81550W        W73474   5.275  34.733  49.665
81551W        W73475  25.251  41.215  50.616
81552W        W73476   5.763  33.701  51.034
81553W        W73477  18.733  35.729  51.518
81554W        W73478  24.734  36.190  51.531
81555W        W73479   5.276  27.715  51.985
81556W        W73480  18.234  10.282  52.901
81557W        W73481   6.765  28.245  49.708
81558W        W73482  26.749  37.693  51.516
81559W        W73483  23.248  11.775  49.681
81560W        W73484  24.243  43.694  51.980
81561W        W73485   9.271  29.223  51.955
81562W        W73486  28.224   8.266  51.037
81563W        W73487  40.193  35.231  51.968
81564W        W73488  40.213  25.750  50.144
81565W        W73489  35.208   5.285  53.342
81566W        W73490  44.225  10.276  50.615
81567W        W73491   3.770  21.720  51.505
81568W        W73492  30.702  12.231  53.316
81569W        W73493  46.704  23.739  52.435
81570W        W73494  31.223   8.241  51.074
81571W        W73495  23.237  22.253  51.079
81572W        W73496  24.744   0.758  52.904
81573W        W73497  16.262  32.201  50.132
81574W        W73498  22.756  33.223  51.497
81575W        W73499  41.198  33.713  50.588
81576W        W73500  41.227  37.701  52.865
81577W        W73501  37.232  28.218  51.052
81578W        W73502  41.722  25.217  49.691
81579W        W73503  20.219   6.253  50.121
81580W        W73504  34.226  45.187  51.066
81581W        W73505  29.217  24.718  52.417
81582W        W73506  15.256  29.719  51.058
81583W        W73507   6.248   1.771  49.665
81584W        W73508  37.222   6.277  53.803
81585W        W73509  25.234  39.699  53.780
81586W        W73510  19.232   7.751  49.701
81587W        W73511  34.228  41.695  50.617
81588W        W73512  14.743  11.772  53.816
81589W        W73513  35.696  46.189  53.802
81590W        W73514  43.704   6.285  52.879
81591W        W73515   9.784  17.250  51.975
81592W        W73516  24.235  12.776  51.532
81593W        W73517  44.185  46.706  50.163
81594W        W73518  31.744  30.718  51.051
81595W        W73519  47.199  37.233  49.674
81596W        W73520  36.734  19.765  52.897
81597W        W73521   4.789  14.770  53.802
81598W        W73522  42.686  33.200  49.678
81599W        W73523  34.213  22.230  53.344
81600W        W73524  32.733  33.203  52.423
81601W        W73525  14.238  14.731  53.355
81602W        W73526  19.222  13.231  50.598
81603W        W73527  33.228   1.265  50.139
81604W        W73528  41.187  25.755  51.056
81605W        W73529   6.287   4.252  53.809
81606W        W73530  46.180  19.749  51.949
81607W        W73531  38.218  28.238  53.320
81608W        W73532  42.717  45.693  51.494
81609W        W73533  30.214  21.239  51.514
81610W        W73534  16.269   8.264  51.990
81611W        W73535  13.758  47.212  51.507
81612W        W73536  43.227   0.796  53.355
81613W        W73537  26.708  22.244  53.799
81614W        W73538  30.212   9.250  51.499
81615W        W73539  28.242  20.219  50.125
81616W        W73540  47.716  48.198  50.593
81617W        W73541   0.265  34.207  51.966
81618W        W73542   1.754  41.223  53.344
81619W        W73543   9.282  26.225  52.443
81620W        W73544   5.244  46.208  53.790
81621W        W73545  45.188  27.215  52.898
81622W        W73546  47.692  28.731  50.130
81623W        W73547  38.233   3.259  50.591
81624W        W73548   9.739  40.692  53.338
81625W        W73549  30.247  15.731  51.525
81626W        W73550   1.771  34.721  52.418
81627W        W73551  47.200  19.223  52.888
81628W        W73552  33.695  34.728  51.522
81629W        W73553  10.748   5.745  51.981
81630W        W73554  13.732  12.236  49.699
81631W        W73555  37.189  36.694  50.132
81632W        W73556  30.705  38.209  51.950
81633W        W73557  46.686  13.737  53.809
81634W        W73558  16.237   4.243  53.325
81635W        W73559  24.739   2.769  53.814
81636W        W73560   7.778  12.752  49.696
81637W        W73561  29.727  34.217  51.066
81638W        W73562  39.196  16.257  49.677
81639W        W73563  40.228   3.756  51.512
81640W        W73564  36.234   8.243  51.036
81641W        W73565  40.718  46.696  51.073
81642W        W73566  26.746  10.280  51.973
81643W        W73567  43.695  33.727  52.897
81644W        W73568  36.213  29.249  50.123
81645W        W73569  28.225  30.233  53.802
81646W        W73570  40.685   1.759  53.774
81647W        W73571  35.715  41.196  52.865
81648W        W73572  43.180  19.227  52.885
81649W        W73573  23.227  40.698  51.956
81650W        W73574   6.776  28.712  50.125
81651W        W73575   7.274  26.210  51.985
81652W        W73576   5.749   9.783  52.435
81653W        W73577  32.227  26.254  49.702
81654W        W73578  34.202   8.759  53.784
81655W        W73579  40.684  14.766  53.341
81656W        W73580  17.753  45.188  52.897
81657W        W73581  38.729   5.249  52.417
81658W        W73582  21.235  30.204  53.796
81659W        W73583  13.768  13.263  53.780
81660W        W73584  41.202  12.769  50.165
81661W        W73585  19.726  35.695  51.984
81662W        W73586   8.766   0.278  51.500
81663W        W73587  43.717  17.256  51.991
81664W        W73588  26.752  22.228  50.135
81665W        W73589  36.719  33.744  52.866
81666W        W73590  28.738  14.743  51.044
81667W        W73591  15.756  37.701  51.535
81668W        W73592  12.244  18.265  50.154
81669W        W73593   3.279   7.286  50.603
81670W        W73594  26.250   5.289  49.674
81671W        W73595  37.701  21.735  52.866
81672W        W73596  47.692  46.689  50.154
81673W        W73597  46.194  42.707  51.070
81674W        W73598   3.261  29.710  49.674
81675W        W73599  38.713  15.272  53.351
81676W        W73600  36.706  44.213  50.138
81677W        W73601  29.220  29.724  51.042
81678W        W73602  41.209  47.177  49.677
81679W        W73603  10.272  27.238  53.321
81680W        W73604  12.732  23.715  51.506
81681W        W73605  26.754  39.703  51.950
81682W        W73606  41.726   3.286  53.788
81683W        W73607  25.257  18.759  53.339
81684W        W73608  39.219  47.687  50.617
81685W        W73609  33.708   7.249  52.434
81686W        W73610  43.726  37.237  53.348
81687W        W73611  43.220  36.230  53.336
81688W        W73612  18.248  45.694  53.319
81689W        W73613  34.218   6.763  52.870
81690W        W73614  36.715  27.217  50.145
81691W        W73615  42.226  29.234  50.141
81692W        W73616  46.691  41.699  52.897
81693W        W73617  13.276  10.254  51.050
81694W        W73618   0.295  19.225  49.673
81695W        W73619  13.253  26.233  50.155
81696W        W73620  40.711  48.189  53.342
81697W        W73621  16.723  23.757  49.677
81698W        W73622  41.193  26.736  50.594
81699W        W73623  41.230  45.220  52.405
81700W        W73624  12.768  46.191  52.884
81701W        W73625  20.223  11.261  51.510
81702W        W73626  15.728  28.709  51.060
81703W        W73627  37.198  18.729  49.683
81704W        W73628  12.274  24.731  50.123
81705W        W73629  38.725  20.747  49.699
81706W        W73630  46.214   0.749  51.037
81707W        W73631  19.736  39.710  50.591
81708W        W73632  20.227   9.741  51.529
81709W        W73633  28.250  42.688  52.892
81710W        W73634  22.231  35.736  53.344
81711W        W73635  40.227  31.727  51.507
81712W        W73636  19.719   9.280  49.667
81713W        W73637  11.274   4.248  51.037
81714W        W73638  36.734  40.714  51.505
81715W        W73639  25.253  17.745  51.978
81716W        W73640  10.742  20.727  53.331
81717W        W73641  26.228  41.723  51.526
81718W        W73642   2.284  30.229  51.062
81719W        W73643  24.216  21.262  53.344
81720W        W73644  14.747   5.270  52.428
81721W        W73645   4.770  42.726  51.512
81722W        W73646  13.728  47.186  50.585
81723W        W73647  22.226   9.735  50.594
81724W        W73648  17.254   9.782  49.683
81725W        W73649  46.709  18.257  51.526
81726W        W73650  34.196  42.716  51.043
81727W        W73651  12.776   8.762  51.037
81728W        W73652  20.234   7.256  50.122
81729W        W73653  41.222  36.211  50.162
81730W        W73654  28.229  34.732  50.600
81731W        W73655  12.240  38.718  51.955
81732W        W73656  44.699  38.736  49.709
81733W        W73657  28.239  20.736  53.794
81734W        W73658  37.218  25.745  50.578
81735W        W73659  17.752  31.728  49.697
81736W        W73660  36.695   3.748  53.361
81737W        W73661  30.237  20.223  49.704
81738W        W73662  37.225  38.702  51.054
81739W        W73663  29.719  40.689  50.585
81740W        W73664  37.728  39.217  53.809
81741W        W73665  20.256  44.221  51.988
81742W        W73666  33.243  39.202  50.611
81743W        W73667  12.746  22.749  51.973
81744W        W73668  41.207  37.207  52.438
81745W        W73669  31.243  15.261  51.976
81746W        W73670  45.688   6.266  51.498
81747W        W73671  32.746  31.714  52.903
81748W        W73672  24.729  25.714  52.413
81749W        W73673  39.213  40.214  53.802
81750W        W73674  47.221  47.703  52.420
81751W        W73675  35.715  13.236  53.330
81752W        W73676  31.738  42.715  51.988
81753W        W73677  15.263  35.740  50.585
81754W        W73678  24.239   4.251  51.514
81755W        W73679  39.723  25.241  50.605
81756W        W73680  41.212  20.731  53.785
81757W        W73681   3.763  22.720  50.599
81758W        W73682  40.209  27.743  52.406
81759W        W73683  32.736  26.234  52.904
81760W        W73684  43.215  48.187  50.606
81761W        W73685  25.721  28.705  53.809
81762W        W73686   3.283  47.183  52.878
81763W        W73687  40.226  47.208  50.579
81764W        W73688  19.220  33.742  51.045
81765W        W73689  16.268  16.238  53.791
81766W        W73690  10.760  43.228  51.957
81767W        W73691  40.684  27.243  53.352
81768W        W73692  27.745  26.211  51.077
81769W        W73693   2.250  36.209  50.604
81770W        W73694   8.769  45.714  51.071
81771W        W73695  17.225  32.230  49.687
81772W        W73696  40.701  29.206  53.356
81773W        W73697  39.225  29.739  50.144
81774W        W73698   5.273  36.206  52.891
81775W        W73699  34.211  22.748  53.782
81776W        W73700  25.711  10.777  53.331
81777W        W73701  42.228  37.238  50.586
81778W        W73702  43.700  28.721  50.616
81779W        W73703   3.263  46.690  50.145
81780W        W73704  11.245  38.213  49.668
81781W        W73705  41.700  29.213  53.786
81782W        W73706  16.239  11.736  53.776
81783W        W73707  36.203   8.781  50.606
81784W        W73708  36.228  16.760  53.797
81785W        W73709  32.239   7.240  51.504
81786W        W73710   8.249   6.740  50.585
81787W        W73711  39.714  15.744  53.359
81788W        W73712  31.701   3.257  49.664
81789W        W73713  18.249  37.195  52.412
81790W        W73714  46.182  22.762  51.990
81791W        W73715   3.762  34.201  51.948
81792W        W73716   7.755  45.713  50.128
81793W        W73717  11.732  10.242  51.041
81794W        W73718  12.745  14.246  49.687
81795W        W73719   1.770  17.722  51.505
81796W        W73720  26.742   6.782  53.773
81797W        W73721  29.227  44.214  53.810
81798W        W73722  32.714   9.760  53.772
81799W        W73723  22.716  44.224  51.951
81800W        W73724  17.763  35.706  49.683
81801W        W73725  43.699   4.754  51.974
81802W        W73726   1.796   6.772  52.880
81803W        W73727  38.194   1.780  51.503
81804W        W73728   6.756  46.188  51.952
81805W        W73729   2.248  24.728  52.413
81806W        W73730  32.198  21.720  52.410
81807W        W73731  29.720  38.701  53.341
81808W        W73732  34.213  15.764  53.346
81809W        W73733  38.694  27.223  50.132
81810W        W73734  39.726  45.693  51.532
81811W        W73735  30.717  12.231  51.042
81812W        W73736  47.684  37.203  50.122
81813W        W73737  45.195  32.233  49.677
81814W        W73738  13.771  44.703  51.976
81815W        W73739  14.745  26.718  51.955
81816W        W73740  43.203  31.206  53.815
81817W        W73741  36.693  44.683  52.905
81818W        W73742  18.239  35.208  52.890
81819W        W73743  42.227  21.742  50.142
81820W        W73744  39.225   3.748  51.521
81821W        W73745   1.788  20.722  52.873
81822W        W73746  35.216   6.240  51.506
81823W        W73747  22.249   9.769  51.984
81824W        W73748  15.267  17.730  50.577
81825W        W73749  31.236  30.218  51.522
81826W        W73750  33.727  15.232  53.341
81827W        W73751  29.731  29.742  51.962
81828W        W73752  12.729   7.763  51.951
81829W        W73753   0.277  10.743  51.988
81830W        W73754  10.780  17.229  51.954
81831W        W73755  39.726  13.774  50.607
81832W        W73756  42.695   0.792  51.057
81833W        W73757  23.224  31.739  50.581
81834W        W73758  21.742  34.214  51.501
81835W        W73759   2.283   3.786  53.349
81836W        W73760   9.235   7.287  50.606
81837W        W73761  16.271  30.744  52.439
81838W        W73762  47.719   6.773  51.038
81839W        W73763  38.688  30.730  51.958
81840W        W73764  25.742  15.270  49.678
81841W        W73765  22.736  44.726  52.878
81842W        W73766  40.728  20.236  52.877
81843W        W73767  44.204   6.266  50.131
81844W        W73768   0.758  17.267  53.807
81845W        W73769   1.267  41.199  50.148
81846W        W73770  21.748   1.763  51.495
81847W        W73771   2.763  18.763  51.961
81848W        W73772  33.740   1.275  50.133
81849W        W73773  34.710  11.255  50.150
81850W        W73774   9.752   3.256  50.616
81851W        W73775  18.247   8.272  52.872
81852W        W73776  15.735  44.207  53.344
81853W        W73777  37.190   0.750  52.444
81854W        W73778   3.768  39.706  52.882
81855W        W73779  38.221   7.257  51.503
81856W        W73780  16.231  27.235  49.678
81857W        W73781  20.731  28.224  51.962
81858W        W73782  33.208   3.785  52.407
81859W        W73783  27.722   7.778  50.150
81860W        W73784  32.225   4.244  49.682
81861W        W73785  40.716   7.250  53.780
81862W        W73786  39.208  13.777  51.038
81863W        W73787  20.245  43.226  51.502
81864W        W73788  37.237  41.725  50.581
81865W        W73789   4.742  30.746  52.436
81866W        W73790   7.748  23.754  52.862
81867W        W73791  29.219  31.717  50.605
81868W        W73792  39.701   9.249  51.042
81869W        W73793  43.725  43.187  51.951
81870W        W73794  27.722  39.207  50.128
81871W        W73795  35.730  10.774  52.446
81872W        W73796  40.209  14.743  52.442
81873W        W73797  21.253  31.243  53.803
81874W        W73798   3.783  11.778  51.513
81875W        W73799  36.734  38.214  53.316
81876W        W73800  28.704  34.704  50.587
81877W        W73801   8.279  37.216  52.884
81878W        W73802  38.703  41.216  53.810
81879W        W73803   6.276  42.698  53.326
81880W        W73804  40.217  18.233  51.518
81881W        W73805  18.741  19.260  51.521
81882W        W73806  23.239  31.718  50.161
81883W        W73807  35.211  33.230  51.069
81884W        W73808  25.246  21.221  50.123
81885W        W73809   5.243  35.693  52.435
81886W        W73810  21.249  38.693  53.798
81887W        W73811   8.770  17.229  52.419
81888W        W73812  44.686  40.701  50.602
81889W        W73813  10.740  34.737  52.424
81890W        W73814  27.243   1.275  50.123
81891W        W73815  27.747  37.238  52.410
81892W        W73816  22.748  29.237  51.962
81893W        W73817   1.258  45.709  51.503
81894W        W73818   3.285  22.224  53.350
81895W        W73819   3.286  25.739  52.410
81896W        W73820   9.740   7.260  53.319
81897W        W73821  37.205  18.724  53.327
81898W        W73822  30.246  13.236  51.507
81899W        W73823  25.751   4.252  52.886
81900W        W73824   8.262  30.241  53.329
81901W        W73825   5.274  27.221  51.050
81902W        W73826   0.766  38.221  53.354
81903W        W73827   7.245  47.207  49.675
81904W        W73828   3.248  26.726  49.673
81905W        W73829  32.716  47.181  51.989
81906W        W73830  41.212  17.251  52.442
81907W        W73831  19.745  37.726  50.599
81908W        W73832  14.753  20.735  51.961
81909W        W73833  37.234   0.781  52.903
81910W        W73834  44.221  34.207  50.600
81911W        W73835  21.719  17.246  53.348
81912W        W73836  28.228  12.747  51.982
81913W        W73837  34.234   1.260  50.147
81914W        W73838  17.756  11.760  53.785
81915W        W73839  12.239  14.270  49.707
81916W        W73840  46.221  10.235  51.075
81917W        W73841  31.698  10.777  50.126
81918W        W73842  33.244  25.724  51.050
81919W        W73843  15.734  45.709  52.876
81920W        W73844  26.249  25.223  51.036
81921W        W73845   7.240   3.754  51.956
81922W        W73846   7.776  34.196  49.693
81923W        W73847  46.185  31.200  52.420
81924W        W73848  21.764   4.256  50.622
81925W        W73849  41.684  17.241  51.979
81926W        W73850  15.733  16.728  53.793
81927W        W73851  30.214  27.745  53.349
81928W        W73852  27.718  17.228  52.878
81929W        W73853   3.748  38.711  53.353
81930W        W73854  17.768  13.248  51.499
81931W        W73855  30.209  25.230  50.593
81932W        W73856  48.204  27.719  49.673
81933W        W73857   9.763  36.719  53.808
81934W        W73858  19.738   5.269  50.596
81935W        W73859  12.236  37.236  50.593
81936W        W73860  21.759  12.738  50.584
81937W        W73861  27.248  16.254  50.582
81938W        W73862  25.253  10.766  51.966
81939W        W73863  37.691  12.754  50.146
81940W        W73864  26.755  24.720  52.425
81941W        W73865  29.244  11.262  51.493
81942W        W73866  22.229  28.222  51.960
81943W        W73867  21.228  25.747  53.318
81944W        W73868  10.775   2.277  53.795
81945W        W73869   5.785  11.277  53.779
81946W        W73870  13.774   0.790  52.427
81947W        W73871   0.267   6.742  53.358
81948W        W73872  28.723  17.730  50.623
81949W        W73873   6.286  45.723  51.061
81950W        W73874  37.222  14.734  53.789
81951W        W73875   6.265  28.726  53.319
81952W        W73876  46.207  38.687  51.064
81953W        W73877  10.748  16.751  51.493
81954W        W73878  13.259  39.226  53.813
81955W        W73879   1.280  40.709  53.798
81956W        W73880   9.760  12.244  51.076
81957W        W73881  30.727   8.278  50.124
81958W        W73882  14.243  37.713  49.692
81959W        W73883   1.261  20.755  51.501
81960W        W73884   5.256  47.185  51.498
81961W        W73885  18.735  43.214  52.412
81962W        W73886  28.229  17.741  51.969
81963W        W73887   2.260  26.714  51.057
81964W        W73888   3.267  36.238  51.511
81965W        W73889  21.715  29.731  51.974
81966W        W73890  16.248  30.231  49.679
81967W        W73891  45.221  38.708  50.132
81968W        W73892  23.244  31.224  52.411
81969W        W73893  47.704  28.238  49.705
81970W        W73894  47.713  40.223  50.129
81971W        W73895  28.223  37.726  50.599
81972W        W73896  31.248   0.268  49.678
81973W        W73897  25.246  43.702  50.136
81974W        W73898   3.753  46.705  51.962
81975W        W73899   2.272   0.263  50.615
81976W        W73900  46.201  15.268  51.498
81977W        W73901  46.710  30.736  51.041
81978W        W73902  27.707  12.756  53.802
81979W        W73903   1.256  40.229  49.670
81980W        W73904   9.773  42.186  50.125
81981W        W73905  29.703  18.242  51.513
81982W        W73906  11.742  43.692  50.597
81983W        W73907  47.677  35.212  52.405
81984W        W73908   8.747  18.749  49.702
81985W        W73909   3.257  14.735  51.503
81986W        W73910  27.209  34.199  50.621
81987W        W73911  47.687  34.216  52.421
81988W        W73912  13.274  17.271  52.868
81989W        W73913   4.272  28.721  50.579
81990W        W73914   9.742  32.234  49.683
81991W        W73915  48.182  37.709  51.978
81992W        W73916  44.681  24.732  51.067
81993W        W73917  45.710  40.698  50.153
81994W        W73918   8.272  10.275  50.137
81995W        W73919   8.752  35.214  51.068
81996W        W73920  41.692  27.232  51.530
81997W        W73921  47.180  32.238  51.073
81998W        W73922  36.719   6.261  50.622
81999W        W73923  20.217  15.229  51.035
82000W        W73924  11.750  10.241  53.361
82001W        W73925  40.227  29.240  53.324
82002W        W73926  21.760  42.707  51.947
82003W        W73927   4.248  31.247  53.790
82004W        W73928  16.264  44.688  49.664
82005W        W73929  41.717  37.701  51.979
82006W        W73930  46.187   9.740  51.534
82007W        W73931  15.767   3.786  51.528
82008W        W73932  20.222  17.766  51.053
82009W        W73933  47.183  29.708  50.622
82010W        W73934  33.696  46.178  51.073
82011W        W73935   9.238  44.184  53.797
82012W        W73936  27.248  16.726  51.980
82013W        W73937  36.220  10.259  53.343
82014W        W73938  36.731  10.264  49.679
82015W        W73939  42.187   4.292  50.605
82016W        W73940  40.697  16.261  52.419
82017W        W73941  18.244  44.696  51.054
82018W        W73942  10.273  37.237  51.964
82019W        W73943  43.199  21.261  51.051
82020W        W73944  25.220   1.793  51.048
82021W        W73945  16.269  13.271  52.904
82022W        W73946  45.197   8.783  49.702
82023W        W73947  27.741   0.269  51.041
82024W        W73948   6.286  33.739  51.526
82025W        W73949  45.710  14.232  49.687
82026W        W73950  11.762   3.263  49.672
82027W        W73951  23.758   9.241  53.324
82028W        W73952  22.725  26.251  50.612
82029W        W73953  22.749  14.745  52.419
82030W        W73954  18.238  37.235  53.339
82031W        W73955  40.195   1.787  53.816
82032W        W73956  31.714  23.738  53.351
82033W        W73957  39.691  41.211  53.814
82034W        W73958  12.756  41.191  53.804
82035W        W73959  16.771  21.227  53.356
82036W        W73960  31.727   5.288  51.034
82037W        W73961  15.729  13.747  53.813
82038W        W73962  28.726  43.196  53.327
82039W        W73963  16.226  40.724  52.872
82040W        W73964  48.195  40.205  53.815
82041W        W73965   2.255  21.244  50.144
82042W        W73966  21.228  16.747  53.794
82043W        W73967  46.214  11.753  51.519
82044W        W73968  26.754  40.195  53.788
82045W        W73969  21.222   9.265  49.706
82046W        W73970  27.250  40.185  53.778
82047W        W73971  32.221  35.719  53.789
82048W        W73972  26.720   6.747  50.155
82049W        W73973  46.187  27.730  51.513
82050W        W73974  31.738  10.771  51.498
82051W        W73975  12.773  24.718  52.882
82052W        W73976  22.749  27.751  53.810
82053W        W73977  29.218   9.771  51.511
82054W        W73978   6.265  32.735  51.495
82055W        W73979  39.700  32.203  52.881
82056W        W73980  19.721   9.272  53.357
82057W        W73981  47.713   2.278  53.324
82058W        W73982   9.243  28.206  51.068
82059W        W73983   6.781   2.787  53.788
82060W        W73984  40.206  22.226  53.802
82061W        W73985  18.250  40.188  53.782
82062W        W73986  30.224  15.731  50.584
82063W        W73987  34.224  21.229  52.897
82064W        W73988  33.206  41.722  51.958
82065W        W73989  11.753  42.680  52.885
82066W        W73990   6.260  13.777  53.333
82067W        W73991  45.689  17.767  52.406
82068W        W73992  37.709  37.724  50.165
82069W        W73993  25.742   8.258  49.684
82070W        W73994  21.749  37.231  50.144
82071W        W73995  38.232  31.241  52.410
82072W        W73996  44.219   8.250  51.050
82073W        W73997   3.753  25.239  52.882
82074W        W73998  17.252  25.247  50.130
82075W        W73999  31.700  34.709  50.582
82076W        W74000  35.691  43.712  52.899
82077W        W74001  17.267   5.270  51.980
82078W        W74002  29.707  17.255  51.967
82079W        W74003  18.233  24.216  53.792
82080W        W74004  39.695  22.221  53.321
82081W        W74005  38.214  15.232  49.696
82082W        W74006  13.260  38.730  50.601
82083W        W74007   8.770  28.216  51.529
82084W        W74008  31.248  13.246  52.422
82085W        W74009  33.231  31.239  51.984
82086W        W74010  23.227  46.176  49.686
82087W        W74011  26.210   3.776  52.863
82088W        W74012   5.751   6.787  52.905
82089W        W74013  15.738  43.720  51.961
82090W        W74014  17.230  29.206  50.130
82091W        W74015  46.179  35.704  51.963
82092W        W74016  37.704   7.269  52.412
82093W        W74017  29.706   9.272  50.581
82094W        W74018   1.268  12.732  52.406
82095W        W74019  46.676  26.213  51.954
82096W        W74020  12.234  39.717  52.895
82097W        W74021  17.240  20.725  53.816
82098W        W74022   1.780  31.709  51.963
82099W        W74023  23.712   5.769  51.963
82100W        W74024  22.251  34.239  51.950
82101W        W74025   4.265   3.284  51.958
82102W        W74026  39.186  20.232  53.359
82103W        W74027   2.269   1.768  52.872
82104W        W74028  36.722  13.278  51.968
82105W        W74029  38.201  14.254  52.413
82106W        W74030  12.771  19.245  49.699
82107W        W74031  14.228  22.721  53.343
82108W        W74032  15.261  21.730  52.897
82109W        W74033   8.738  20.243  52.897
82110W        W74034  35.222  34.728  50.602
82111W        W74035  14.228  43.684  50.132
82112W        W74036  26.755  36.213  52.407
82113W        W74037  23.232  34.215  50.154
82114W        W74038   8.237  39.195  50.607
82115W        W74039   1.774  10.261  53.350
82116W        W74040   8.264  36.715  51.510
82117W        W74041  36.729  29.732  52.884
82118W        W74042   2.784   4.748  51.078
82119W        W74043   1.793  34.239  53.360
82120W        W74044  32.216  13.730  49.675
82121W        W74045   8.757  43.187  53.348
82122W        W74046  22.261  31.228  53.785
82123W        W74047  21.744  34.720  51.075
82124W        W74048  15.271  40.200  53.326
82125W        W74049  28.235  14.768  53.335
82126W        W74050  24.249  12.741  53.781
82127W        W74051  15.260  24.725  52.432
82128W        W74052  35.737  28.234  53.778
82129W        W74053   2.783   1.273  52.420
82130W        W74054  29.216  17.727  53.803
82131W        W74055  17.271  12.262  52.904
82132W        W74056  39.726  30.720  53.343
82133W        W74057   2.290  19.265  53.358
82134W        W74058  26.727  47.195  49.697
82135W        W74059  17.245  37.237  52.431
82136W        W74060   9.235  41.202  53.814
82137W        W74061   8.742  32.741  51.492
82138W        W74062  14.239  34.705  49.670
82139W        W74063  18.735   7.250  53.799
82140W        W74064   7.763   9.748  51.524
82141W        W74065  10.761  30.233  50.614
82142W        W74066  37.731  15.270  53.789
82143W        W74067  39.191  23.755  50.127
82144W        W74068  18.258  16.254  51.053
82145W        W74069  19.719  16.768  52.413
82146W        W74070  33.234  29.732  51.514
82147W        W74071  42.212  37.199  53.780
82148W        W74072   4.743   5.247  51.067
82149W        W74073  18.240   4.761  52.422
82150W        W74074  28.726  37.215  51.510
82151W        W74075  33.226  19.743  52.894
82152W        W74076  31.699  10.782  52.899
82153W        W74077  12.262  13.234  50.582
82154W        W74078  37.192  15.252  52.411
82155W        W74079   0.261  26.250  53.317
82156W        W74080  20.760  40.704  51.070
82157W        W74081  24.736   9.769  49.672
82158W        W74082  18.244   4.764  51.526
82159W        W74083   0.775  43.222  51.527
82160W        W74084  35.722  43.218  50.582
82161W        W74085   4.280  29.205  53.790
82162W        W74086  19.725  43.701  50.140
82163W        W74087   3.750  28.743  49.690
82164W        W74088   7.768  26.725  49.671
82165W        W74089  12.745  26.249  51.075
82166W        W74090  40.716  11.233  51.498
82167W        W74091  28.251  25.756  49.701
82168W        W74092   4.292   7.758  53.805
82169W        W74093  31.703  26.716  49.707
82170W        W74094  13.250  48.174  50.162
82171W        W74095  11.768  40.727  49.668
82172W        W74096  10.762  38.195  51.981
82173W        W74097  11.767  20.749  52.424
82174W        W74098  31.218   3.772  50.609
82175W        W74099  13.748  28.751  52.443
82176W        W74100  17.254   3.762  52.888
82177W        W74101  23.220  19.233  50.129
82178W        W74102  47.213  18.224  51.045
82179W        W74103  27.753  42.200  51.960
82180W        W74104  24.245  18.237  49.679
82181W        W74105  43.191  22.215  51.960
82182W        W74106  42.692  45.209  50.595
82183W        W74107  41.197  16.731  51.056
82184W        W74108  27.734  36.695  50.148
82185W        W74109  19.748  48.185  52.870
82186W        W74110  11.255  34.201  53.316
82187W        W74111  24.223  26.720  53.361
82188W        W74112  18.763  46.205  50.600
82189W        W74113  43.227  32.211  51.987
82190W        W74114  19.242  23.253  50.586
82191W        W74115   6.278   3.762  49.702
82192W        W74116   4.785  35.715  52.903
82193W        W74117   0.289   1.252  50.601
82194W        W74118  42.704  12.273  51.991
82195W        W74119  39.192  29.718  50.599
82196W        W74120   8.255   4.272  52.411
82197W        W74121  41.201  43.226  52.427
82198W        W74122  13.745  34.229  52.429
82199W        W74123  15.724  33.232  50.162
82200W        W74124   6.253  35.213  49.690
82201W        W74125  44.202  10.739  53.347
82202W        W74126   5.248   2.296  52.437
82203W        W74127  30.725  15.733  52.900
82204W        W74128   3.255   6.774  53.779
82205W        W74129  21.762  29.216  51.075
82206W        W74130  17.268   7.767  53.330
82207W        W74131  25.718  25.739  52.414
82208W        W74132  11.734   5.243  49.671
82209W        W74133  13.239  48.180  51.052
82210W        W74134   7.745   7.740  52.421
82211W        W74135  15.764  32.209  51.530
82212W        W74136  26.235  29.222  53.343
82213W        W74137  35.717  45.678  49.684
82214W        W74138   5.283   7.268  51.048
82215W        W74139   1.257  39.727  50.582
82216W        W74140   0.767  31.726  50.600
82217W        W74141   7.763  40.223  53.809
82218W        W74142  18.220  17.245  50.143
82219W        W74143   8.281  43.197  53.354
82220W        W74144  12.751   9.273  49.685
82221W        W74145  29.226  10.276  51.958
82222W        W74146  14.252  40.209  50.154
82223W        W74147  30.736  34.708  51.514
82224W        W74148  14.727  48.186  52.444
82225W        W74149  32.740  11.760  51.981
82226W        W74150  39.232  43.711  49.679
82227W        W74151  16.751  45.191  51.523
82228W        W74152  34.230  44.194  49.667
82229W        W74153  26.717  11.281  51.992
82230W        W74154  44.681  35.228  50.593
82231W        W74155   5.775  47.700  53.781
82232W        W74156  33.720  16.255  52.408
82233W        W74157  13.767   5.256  52.885
82234W        W74158  44.204   9.742  51.037
82235W        W74159  45.675   5.284  50.149
82236W        W74160  27.213  31.235  53.812
82237W        W74161  38.727   2.292  51.513
82238W        W74162  23.742  38.699  50.588
82239W        W74163  10.235   6.748  51.042
82240W        W74164  20.245  25.225  53.813
82241W        W74165   4.790  35.724  53.346
82242W        W74166  27.242  14.268  49.709
82243W        W74167   3.252   2.752  50.594
82244W        W74168   4.254  37.203  52.882
82245W        W74169  10.269  20.737  52.416
82246W        W74170   6.282  18.232  50.122
82247W        W74171  24.242   2.290  51.493
82248W        W74172  21.228   5.747  51.532
82249W        W74173  12.257  15.251  53.317
82250W        W74174  20.247  31.226  50.160
82251W        W74175  19.237  29.238  50.614
82252W        W74176  15.237   0.262  50.159
82253W        W74177  19.735  38.198  51.501
82254W        W74178   7.258  38.196  49.681
82255W        W74179   5.259  31.733  52.440
82256W        W74180  48.183  46.195  49.685
82257W        W74181  38.713  32.233  50.583
82258W        W74182  12.262  12.747  49.674
82259W        W74183   1.255  14.262  49.697
82260W        W74184   4.748   4.744  51.045
82261W        W74185  35.717  34.225  51.954
82262W        W74186   9.251  44.186  51.957
82263W        W74187  17.747  41.220  50.147
82264W        W74188   5.749  23.716  51.504
82265W        W74189  35.738   1.765  51.078
82266W        W74190  15.744  12.762  50.134
82267W        W74191   5.255  41.189  52.429
82268W        W74192  41.192  19.258  52.434
82269W        W74193   9.769  42.196  53.810
82270W        W74194  46.191  27.748  50.131
82271W        W74195  16.231  36.709  51.045
82272W        W74196  48.173  47.196  51.975
82273W        W74197  45.696  25.722  52.895
82274W        W74198  35.195  12.257  53.791
82275W        W74199  40.694  24.716  51.043
82276W        W74200  33.741  32.718  52.885
82277W        W74201  25.235  24.745  52.403
82278W        W74202  44.187  25.718  49.693
82279W        W74203  31.218   3.277  51.039
82280W        W74204  34.697  10.756  49.687
82281W        W74205   6.251  25.720  53.337
82282W        W74206  47.681  46.705  51.036
82283W        W74207  10.768  18.734  51.056
82284W        W74208   3.750  38.193  50.155
82285W        W74209  13.757  43.188  52.424
82286W        W74210  35.708  34.212  50.586
82287W        W74211  36.227  45.676  49.696
82288W        W74212  34.738  46.701  51.524
82289W        W74213  46.675  29.730  51.051
82290W        W74214  23.239   0.254  51.968
82291W        W74215  41.685  13.761  50.601
82292W        W74216  45.193  26.246  50.592
82293W        W74217  13.755  11.242  50.581
82294W        W74218  19.225  42.215  51.967
82295W        W74219   5.276  32.723  50.600
82296W        W74220  16.232   0.281  53.799
82297W        W74221  43.707   0.795  52.891
82298W        W74222  13.767  46.679  50.122
82299W        W74223  14.254  25.756  52.877
82300W        W74224  21.716  43.702  51.976
82301W        W74225  32.220   2.293  52.432
82302W        W74226  36.200  31.744  51.076
82303W        W74227  40.689   2.794  52.873
82304W        W74228   5.789  36.207  51.494
82305W        W74229  25.223  19.232  51.972
82306W        W74230  31.221  16.744  50.129
82307W        W74231  31.242   7.750  50.144
82308W        W74232  14.769   1.748  50.614
82309W        W74233  15.758  37.216  50.614
82310W        W74234  28.751  15.767  51.946
82311W        W74235  34.232   0.274  51.509
82312W        W74236  42.199  25.219  51.534
82313W        W74237  47.692  26.239  52.446
82314W        W74238  16.256  43.679  51.493
82315W        W74239  40.698  40.709  52.892
82316W        W74240  48.202  25.212  52.902
82317W        W74241  34.716  10.757  53.334
82318W        W74242  47.182  34.723  51.059
82319W        W74243  42.222  30.718  49.707
82320W        W74244  39.715  21.248  52.427
82321W        W74245  20.240   2.289  53.339
82322W        W74246  45.204   2.790  53.813
82323W        W74247   3.781  39.209  51.068
82324W        W74248  16.765  38.192  52.895
82325W        W74249   4.273  30.744  51.975
82326W        W74250  15.230  28.725  52.430
82327W        W74251  23.242  23.750  49.668
82328W        W74252  40.218  27.209  51.984
82329W        W74253  23.212  25.251  51.072
82330W        W74254  25.747  21.739  53.777
82331W        W74255  34.696  26.228  52.877
82332W        W74256  13.744  41.203  53.804
82333W        W74257  26.737   8.771  52.901
82334W        W74258  12.739  47.179  50.592
82335W        W74259  45.213   5.775  50.136
82336W        W74260  13.262  33.741  52.887
82337W        W74261   4.788  27.736  53.347
82338W        W74262   7.786  38.723  52.883
82339W        W74263  31.212  32.221  51.513
82340W        W74264   7.276  27.217  51.530
82341W        W74265  42.215   4.759  49.691
82342W        W74266  33.201  21.755  53.355
82343W        W74267  24.243  24.739  52.443
82344W        W74268   8.779   8.751  53.356
82345W        W74269  28.740  34.711  49.680
82346W        W74270  14.263   1.278  52.887
82347W        W74271   9.269   6.284  52.428
82348W        W74272  12.731  20.259  49.691
82349W        W74273  20.719  36.715  50.580
82350W        W74274  37.194   1.275  51.531
82351W        W74275  46.178  46.699  53.818
82352W        W74276  32.236  21.747  51.516
82353W        W74277  44.697  25.246  49.703
82354W        W74278  14.236  40.694  51.496
82355W        W74279   6.272  20.759  51.981
82356W        W74280  29.241  41.710  49.695
82357W        W74281  47.697   7.760  51.063
82358W        W74282  13.730  38.200  51.053
82359W        W74283   8.249  43.679  50.129
82360W        W74284  10.744  42.198  50.579
82361W        W74285  15.268  16.235  51.491
82362W        W74286  12.736  34.230  52.889
82363W        W74287   8.775  13.261  49.688
82364W        W74288  22.716   7.745  51.524
82365W        W74289  17.269  33.235  51.057
82366W        W74290  47.214  17.253  51.496
82367W        W74291  11.266  48.185  49.666
82368W        W74292  32.210  27.710  53.319
82369W        W74293  25.725   8.758  50.128
82370W        W74294  25.247  43.717  53.326
82371W        W74295  41.187  10.773  53.792
82372W        W74296  35.729  36.710  51.981
82373W        W74297  42.714  25.740  50.622
82374W        W74298  21.753  37.228  52.447
82375W        W74299  26.731  48.212  49.704
82376W        W74300   3.248  25.743  52.881
82377W        W74301  37.725  29.715  51.955
82378W        W74302  12.259  30.238  51.059
82379W        W74303  23.749  27.250  49.690
82380W        W74304   1.250  32.224  51.062
82381W        W74305  48.182   4.743  50.140
82382W        W74306  16.234  43.696  51.981
82383W        W74307  31.709   9.235  51.966
82384W        W74308  28.741   6.776  53.817
82385W        W74309  17.764  39.222  50.607
82386W        W74310  42.185  47.687  51.074
82387W        W74311  37.710   9.759  52.403
82388W        W74312  42.687  34.723  50.584
82389W        W74313  12.744  42.690  51.034
82390W        W74314  35.702  32.711  52.869
82391W        W74315  44.213  10.255  53.322
82392W        W74316  21.737   6.752  52.431
82393W        W74317  35.692   0.783  53.814
82394W        W74318  17.757  47.673  49.699
82395W        W74319  35.724  24.736  50.621
82396W        W74320  18.240  19.228  53.794
82397W        W74321  27.744  19.266  52.423
82398W        W74322   3.264  15.260  51.534
82399W        W74323  38.212  41.221  50.152
82400W        W74324   7.738  19.735  53.330
82401W        W74325  41.714  13.265  51.497
82402W        W74326  20.224  26.223  49.684
82403W        W74327  16.242  44.203  50.126
82404W        W74328  21.722  32.724  51.038
82405W        W74329  17.225  40.224  51.965
82406W        W74330  28.740  29.704  53.361
82407W        W74331   6.782   4.791  51.069
82408W        W74332  39.717  42.684  53.333
82409W        W74333   9.255   4.757  53.341
82410W        W74334  14.249   5.755  52.876
82411W        W74335  32.714  48.216  51.041
82412W        W74336  21.744   8.268  52.903
82413W        W74337   1.780  18.720  50.156
82414W        W74338   9.740  22.241  53.789
82415W        W74339  25.751   1.751  53.320
82416W        W74340  44.181   6.775  52.412
82417W        W74341   4.743   8.754  50.153
82418W        W74342  34.742   3.791  51.035
82419W        W74343  27.208  43.201  49.676
82420W        W74344  28.247  36.729  49.705
82421W        W74345  38.202  38.694  50.150
82422W        W74346   3.270  25.220  53.811
82423W        W74347  15.765  30.239  51.972
82424W        W74348   2.770  23.260  51.957
82425W        W74349  32.743  44.688  52.902
82426W        W74350  22.753  35.693  50.587
82427W        W74351  32.208  20.226  50.130
82428W        W74352   4.752  28.251  52.898
82429W        W74353  35.739   0.279  50.148
82430W        W74354   4.248  15.736  52.884
82431W        W74355  14.256   5.246  50.155
82432W        W74356  25.730  47.213  51.534
82433W        W74357  21.244  10.267  51.041
82434W        W74358   4.245  32.232  53.816
82435W        W74359   6.263   7.752  53.359
82436W        W74360  27.737  47.690  50.585
82437W        W74361  24.258  46.709  50.600
82438W        W74362  39.708  45.187  50.612
82439W        W74363  10.771   1.769  51.492
82440W        W74364  35.193  38.204  50.126
82441W        W74365   5.763  18.746  52.867
82442W        W74366   8.245  22.715  50.134
82443W        W74367  19.233   1.261  50.578
82444W        W74368  33.708   0.265  53.795
82445W        W74369  37.737  38.718  49.669
82446W        W74370  26.752  12.747  52.872
82447W        W74371   6.258  41.193  51.501
82448W        W74372  17.255  29.235  53.324
82449W        W74373  20.747  46.212  50.579
82450W        W74374  30.713  38.689  52.876
82451W        W74375  42.227  35.713  50.608
82452W        W74376  19.245  35.722  50.148
82453W        W74377  12.237  17.766  51.072
82454W        W74378  12.277  45.689  52.873
82455W        W74379  42.215  35.202  51.512
82456W        W74380  44.712  39.213  49.687
82457W        W74381   3.280  40.201  53.812
82458W        W74382   5.780  29.742  52.414
82459W        W74383   3.279  20.754  51.523
82460W        W74384  33.213  36.210  51.060
82461W        W74385  44.692  42.184  50.613
82462W        W74386  23.760  39.721  51.958
82463W        W74387   8.741  18.259  52.403
82464W        W74388  18.269  33.239  49.678
82465W        W74389  39.215   8.238  51.507
82466W        W74390  15.243  42.718  50.592
82467W        W74391  17.262  26.751  53.816
82468W        W74392  43.198  43.182  53.810
82469W        W74393  10.738  20.261  51.500
82470W        W74394  23.240  21.217  52.896
82471W        W74395  36.717  12.752  51.987
82472W        W74396  10.765   2.261  52.443
82473W        W74397  42.704  24.726  53.774
82474W        W74398  30.239  18.260  49.678
82475W        W74399  34.239  42.215  53.807
82476W        W74400   0.778  44.225  51.520
82477W        W74401   8.273  46.218  52.877
82478W        W74402  31.703  15.231  52.422
82479W        W74403  29.219   0.295  50.604
82480W        W74404  45.684  39.185  52.864
82481W        W74405  40.723  18.259  53.780
82482W        W74406  30.230   2.282  51.985
82483W        W74407  12.261   2.276  53.360
82484W        W74408   9.753  48.213  50.128
82485W        W74409  17.750  45.702  50.133
82486W        W74410   4.773  13.256  53.334
82487W        W74411  22.222  23.231  49.682
82488W        W74412   8.286   9.241  52.434
82489W        W74413  35.213  32.234  51.983
82490W        W74414   8.777  14.269  49.676
82491W        W74415  44.721  41.183  50.142
82492W        W74416  27.226  37.207  49.681
82493W        W74417  42.685   1.766  50.609
82494W        W74418  14.227   0.287  52.444
82495W        W74419  13.244  15.758  50.584
82496W        W74420   5.787  47.197  52.874
82497W        W74421  10.739   5.748  53.809
82498W        W74422  34.240  35.703  53.817
82499W        W74423  26.226  39.693  53.325
82500W        W74424  25.737   5.750  53.353
82501W        W74425  32.717  18.243  50.136
82502W        W74426  42.714  26.229  50.138
82503W        W74427  42.227  44.200  52.904
82504W        W74428  20.739  41.226  50.153
82505W        W74429  19.753  17.239  51.967
82506W        W74430  14.756  38.726  51.980
82507W        W74431  29.750   5.259  51.977
82508W        W74432  31.234  45.198  50.621
82509W        W74433  33.203  36.219  51.980
82510W        W74434  36.726   2.247  50.609
82511W        W74435  36.694  45.219  51.961
82512W        W74436  33.736   3.767  51.040
82513W        W74437  47.218  42.687  53.786
82514W        W74438  43.714  13.764  51.987
82515W        W74439  39.208  23.712  51.494
82516W        W74440  12.233  25.757  50.153
82517W        W74441  31.237  16.232  51.502
82518W        W74442  30.223   9.260  51.986
82519W        W74443   6.247   6.262  51.956
82520W        W74444  39.694  36.227  49.670
82521W        W74445  20.227  39.201  50.146
82522W        W74446  39.686  27.709  53.800
82523W        W74447   5.755   7.246  51.973
82524W        W74448  28.731  17.744  52.895
82525W        W74449  17.724  10.276  51.523
82526W        W74450   4.264   4.745  50.579
82527W        W74451  17.769  13.745  53.794
82528W        W74452  40.702  10.757  50.144
82529W        W74453  22.760  35.717  53.326
82530W        W74454  20.244  38.691  52.880
82531W        W74455  35.731  10.737  51.501
82532W        W74456  36.722  42.200  50.143
82533W        W74457  43.683  23.219  53.327
82534W        W74458  29.228  29.705  52.422
82535W        W74459  47.177   6.268  50.139
82536W        W74460  11.748  28.737  52.407
82537W        W74461  31.707  16.729  51.050
82538W        W74462  23.760  26.254  51.513
82539W        W74463  39.724  17.247  49.685
82540W        W74464  30.231  27.209  52.885
82541W        W74465   0.786  48.177  49.681
82542W        W74466   3.758  39.195  51.971
82543W        W74467   7.755   5.250  50.161
82544W        W74468  38.218  19.733  49.696
82545W        W74469  24.232  33.706  53.335
82546W        W74470  33.732  47.189  50.616
82547W        W74471  33.722   2.287  53.816
82548W        W74472   5.248   6.760  53.328
82549W        W74473  26.248  34.242  51.535
82550W        W74474  32.205   3.294  49.669
82551W        W74475  31.729  26.718  50.622
82552W        W74476  36.230  18.225  51.043
82553W        W74477  19.227  33.220  51.946
82554W        W74478  19.267  47.203  53.349
82555W        W74479   8.769   3.269  50.121
82556W        W74480  15.726  35.721  52.434
82557W        W74481  27.254  28.747  51.975
82558W        W74482   6.775   8.266  49.665
82559W        W74483  47.213  17.753  50.613
82560W        W74484  44.686  39.210  53.809
82561W        W74485  38.734  31.698  51.976
82562W        W74486  35.728  10.236  52.895
82563W        W74487  24.237  34.208  51.969
82564W        W74488  47.701  32.729  51.535
82565W        W74489  17.722   0.288  52.446
82566W        W74490  47.678  45.699  49.666
82567W        W74491  22.752  32.700  51.044
82568W        W74492  33.742  13.278  51.037
82569W        W74493  37.203  34.227  50.146
82570W        W74494  19.759  38.191  53.345
82571W        W74495   3.786   9.270  51.957
82572W        W74496   4.253  37.697  52.425
82573W        W74497  24.227  41.718  49.700
82574W        W74498  31.213  39.213  51.965
82575W        W74499  47.679  41.196  51.957
82576W        W74500  17.745  47.204  51.961
82577W        W74501  17.257  20.747  51.038
82578W        W74502  26.753  36.236  51.983
82579W        W74503  32.244  36.730  50.160
82580W        W74504  12.776  13.753  51.534
82581W        W74505  15.744  11.768  50.139
82582W        W74506   1.290   0.260  49.700
82583W        W74507  11.754  11.235  51.043
82584W        W74508   2.256   0.791  53.345
82585W        W74509   9.253  46.687  52.865
82586W        W74510   4.246  14.766  52.441
82587W        W74511  16.253  42.703  51.521
82588W        W74512  29.207  11.253  50.132
82589W        W74513  38.235   3.294  52.436
82590W        W74514  21.716  46.721  52.429
82591W        W74515  25.242  16.230  52.886
82592W        W74516  31.218   9.735  52.425
82593W        W74517   2.752  16.267  49.685
82594W        W74518  39.706  30.726  52.409
82595W        W74519  41.227  33.723  51.501
82596W        W74520  46.206  46.710  51.074
82597W        W74521  35.729  46.193  53.320
82598W        W74522  25.741   0.787  50.146
82599W        W74523  21.760  21.759  52.862
82600W        W74524   6.763   3.294  50.596
82601W        W74525  27.751  33.200  52.902
82602W        W74526  25.217   8.268  50.603
82603W        W74527   2.753   9.738  51.520
82604W        W74528  16.755  31.701  52.418
82605W        W74529  43.192  28.233  53.808
82606W        W74530   7.277  34.727  53.317
82607W        W74531  45.221  30.707  52.902
82608W        W74532  31.241  47.219  50.165
82609W        W74533  20.754  37.697  53.773
82610W        W74534  46.705   0.282  53.807
82611W        W74535  26.247  24.722  49.704
82612W        W74536   6.788  18.727  50.581
82613W        W74537   4.264  39.698  51.527
82614W        W74538  15.248  36.240  49.699
82615W        W74539  22.714  33.211  52.873
82616W        W74540  23.236   8.776  50.135
82617W        W74541   9.251  34.233  50.592
82618W        W74542  24.759   9.753  51.974
82619W        W74543   7.249  21.757  51.060
82620W        W74544   5.763  43.227  51.514
82621W        W74545   6.248  38.192  50.580
82622W        W74546  31.222  43.715  51.034
82623W        W74547  16.238  29.740  51.074
82624W        W74548   7.262   9.268  52.414
82625W        W74549  30.699   4.281  52.423
82626W        W74550  30.217  16.744  53.785
82627W        W74551  28.732  31.247  52.445
82628W        W74552  16.732  19.757  52.876
82629W        W74553  34.209  14.231  50.157
82630W        W74554  44.682  25.224  53.348
82631W        W74555  19.718  16.762  52.897
82632W        W74556  12.262  42.686  51.502
82633W        W74557  20.233   5.265  49.670
82634W        W74558  17.271   6.778  51.515
82635W        W74559  11.232   4.791  53.813
82636W        W74560  21.250  47.696  49.703
82637W        W74561  43.699  45.695  52.426
82638W        W74562  44.190  30.204  53.813
82639W        W74563  13.749  33.225  50.129
82640W        W74564   2.288  38.693  53.778
82641W        W74565  25.723  12.273  49.677
82642W        W74566  13.236   8.779  51.964
82643W        W74567  27.230  15.236  50.593
82644W        W74568  22.759  24.734  53.797
82645W        W74569  24.253  16.225  53.797
82646W        W74570  26.243  22.732  51.524
82647W        W74571  23.236  25.236  51.505
82648W        W74572  46.221  32.746  52.876
82649W        W74573  14.764   2.270  50.155
82650W        W74574   8.243  12.751  51.965
82651W        W74575  29.743  31.733  50.155
82652W        W74576  14.753   5.770  50.128
82653W        W74577  43.715  41.195  52.414
82654W        W74578  48.195  34.233  49.708
82655W        W74579  40.718   2.269  53.330
82656W        W74580  48.208  18.761  53.811
82657W        W74581  21.741  29.228  49.666
82658W        W74582  18.765  29.234  53.341
82659W        W74583  33.226  19.748  50.137
82660W        W74584  20.717  17.734  51.517
82661W        W74585  28.208   9.259  50.622
82662W        W74586  41.731  28.703  53.796
82663W        W74587  30.247   3.266  52.419
82664W        W74588   6.249  18.734  52.868
82665W        W74589  45.225  24.242  49.692
82666W        W74590  37.690  37.698  53.321
82667W        W74591  31.214   3.272  51.965
82668W        W74592  47.673  29.204  52.895
82669W        W74593  38.192  32.742  51.054
82670W        W74594  19.744  17.730  49.688
82671W        W74595  15.235  14.763  53.816
82672W        W74596  20.262  12.231  50.152
82673W        W74597  42.220  29.719  53.358
82674W        W74598  37.692  17.731  50.156
82675W        W74599  33.199   4.244  51.980
82676W        W74600  47.697  10.264  51.074
82677W        W74601  47.714  48.177  51.952
82678W        W74602  29.736  23.732  50.601
82679W        W74603  25.722  34.699  53.796
82680W        W74604  30.708  45.710  52.436
82681W        W74605  16.235  10.241  53.333
82682W        W74606  40.218   3.275  50.141
82683W        W74607  14.742  24.741  50.604
82684W        W74608  42.204  11.267  52.872
82685W        W74609  14.260  29.246  51.524
82686W        W74610  42.191  41.682  52.440
82687W        W74611  10.764  32.708  51.508
82688W        W74612  37.200  30.734  53.804
82689W        W74613  20.236  35.725  51.052
82690W        W74614  34.726  35.228  52.862
82691W        W74615   6.258  16.750  49.671
82692W        W74616  19.742   6.271  53.320
82693W        W74617   4.755  28.710  50.623
82694W        W74618   4.784  15.726  50.122
82695W        W74619  24.741  28.216  53.794
82696W        W74620  34.732  47.714  52.407
82697W        W74621  48.201   0.281  50.595
82698W        W74622  39.717   2.769  53.353
82699W        W74623   7.742  11.241  52.444
82700W        W74624  17.767  16.266  53.792
82701W        W74625  37.192  41.720  51.065
82702W        W74626  46.198  14.729  52.410
82703W        W74627  24.741   4.283  50.619
82704W        W74628  47.720  47.196  52.413
82705W        W74629  17.241   6.768  53.804
82706W        W74630  42.184  33.724  51.991
82707W        W74631  27.726  45.185  51.513
82708W        W74632  37.712  19.765  51.972
82709W        W74633  42.698  45.202  51.985
82710W        W74634   9.240  47.721  52.417
82711W        W74635   8.254  24.714  50.144
82712W        W74636   9.237  20.728  53.774
82713W        W74637  16.750   4.246  49.667
82714W        W74638  37.700   7.278  51.051
82715W        W74639   8.773   4.758  49.710
82716W        W74640  17.222   8.272  52.415
82717W        W74641  40.687  27.726  52.419
82718W        W74642  20.743   6.769  51.976
82719W        W74643   5.784  46.718  51.508
82720W        W74644  23.258  16.251  52.407
82721W        W74645  36.728  25.214  51.957
82722W        W74646  45.187   9.783  50.609
82723W        W74647   6.249  22.743  53.318
82724W        W74648  40.729  16.256  51.507
82725W        W74649  14.733  39.691  49.673
82726W        W74650  37.231  36.225  51.068
82727W        W74651  17.733  47.672  50.612
82728W        W74652  27.241   5.279  51.527
82729W        W74653  28.703  18.239  51.068
82730W        W74654  17.734   1.785  50.617
82731W        W74655  26.742  30.246  52.865
82732W        W74656  41.716  15.765  51.034
82733W        W74657  16.747  20.233  51.050
82734W        W74658  24.713  43.681  50.147
82735W        W74659  17.763  19.220  53.357
82736W        W74660  13.248  31.216  51.952
82737W        W74661  47.196  32.714  51.979
82738W        W74662  19.236  44.716  53.322
82739W        W74663  14.742  40.697  52.419
82740W        W74664  13.230   6.279  51.052
82741W        W74665  16.749  13.275  51.057
82742W        W74666  24.233  12.243  53.782
82743W        W74667  41.727  23.257  53.323
82744W        W74668   0.790  35.695  50.142
82745W        W74669  16.740  28.743  51.977
82746W        W74670  32.219  27.206  51.512
82747W        W74671  47.183  34.209  53.357
82748W        W74672   1.781  18.746  51.042
82749W        W74673   0.776  18.268  52.444
82750W        W74674  43.719  14.242  52.900
82751W        W74675  25.241  13.239  50.131
82752W        W74676  10.282  12.231  52.409
82753W        W74677  11.750  18.767  51.983
82754W        W74678  29.748  36.708  52.448
82755W        W74679  24.258  11.243  52.411
82756W        W74680  14.257   6.760  52.439
82757W        W74681  42.700  38.220  49.686
82758W        W74682  11.279  10.254  51.074
82759W        W74683   5.264  24.233  52.882
82760W        W74684   2.746  10.756  51.500
82761W        W74685  35.726  39.186  52.416
82762W        W74686  37.222  23.729  51.954
82763W        W74687  39.706  36.190  53.774
82764W        W74688  28.250  22.749  53.356
82765W        W74689  39.188  30.213  50.157
82766W        W74690   6.264  48.199  49.709
82767W        W74691   7.266  36.724  53.816
82768W        W74692  21.241  31.708  52.879
82769W        W74693  25.754  29.718  50.583
82770W        W74694  10.737  45.703  53.810
82771W        W74695  19.754  44.206  51.062
82772W        W74696  41.704  22.224  52.448
82773W        W74697   3.749   6.263  52.873
82774W        W74698  25.252  47.191  53.804
82775W        W74699  38.719  48.197  51.955
82776W        W74700  12.253  41.707  49.680
82777W        W74701   7.269   0.291  50.581
82778W        W74702  28.737  31.708  50.579
82779W        W74703  43.207  20.750  51.051
82780W        W74704   8.762  45.720  50.620
82781W        W74705  28.742  39.696  51.070
82782W        W74706  38.713  25.220  51.054
82783W        W74707  19.260  27.747  51.962
82784W        W74708  20.738  42.199  49.670
82785W        W74709  30.245  13.244  51.064
82786W        W74710  28.724  22.753  51.524
82787W        W74711   1.295  11.755  50.622
82788W        W74712  14.770  16.727  52.437
82789W        W74713  46.676  22.235  51.992
82790W        W74714  40.716   8.251  50.142
82791W        W74715  28.218  30.744  50.165
82792W        W74716  17.771  34.223  53.809
82793W        W74717   3.290   5.244  49.679
82794W        W74718   5.271  16.245  51.517
82795W        W74719  30.746  31.719  52.425
82796W        W74720   5.270  10.243  50.608
82797W        W74721  26.724  19.727  51.073
82798W        W74722  47.189  32.717  51.524
82799W        W74723  26.211   4.763  49.674
82800W        W74724  14.257   1.252  51.048
82801W        W74725  29.742  26.710  51.073
82802W        W74726  47.192  21.744  52.427
82803W        W74727  29.706  27.212  52.444
82804W        W74728  24.747  15.230  51.954
82805W        W74729  40.200  45.181  52.444
82806W        W74730  25.720  38.209  51.495
82807W        W74731   4.276   1.286  51.501
82808W        W74732  32.743  31.240  51.510
82809W        W74733  19.759  32.237  51.507
82810W        W74734  11.278  15.765  52.447
82811W        W74735   5.779  14.737  51.990
82812W        W74736  48.200  10.749  51.509
82813W        W74737  11.278  22.724  50.580
82814W        W74738  26.740  44.178  53.784
82815W        W74739  21.228  41.693  50.144
82816W        W74740   3.261  45.217  53.316
82817W        W74741  17.741  26.208  50.596
82818W        W74742  47.679  31.245  52.872
82819W        W74743  43.684  42.198  49.680
82820W        W74744   3.780   7.777  50.122
82821W        W74745  47.208  25.726  53.318
82822W        W74746  39.729  15.751  50.619
82823W        W74747  26.708  34.695  52.884
82824W        W74748  42.181   9.747  53.324
82825W        W74749  26.746  36.701  51.044
82826W        W74750  35.195  25.712  49.692
82827W        W74751  46.221  24.228  51.947
82828W        W74752  34.236  45.195  52.410
82829W        W74753   4.266  13.767  52.884
82830W        W74754  42.693  31.716  53.817
82831W        W74755  39.722   2.280  50.607
82832W        W74756  23.216  41.196  52.902
82833W        W74757  38.188  11.241  51.502
82834W        W74758  15.764  21.730  51.991
82835W        W74759  37.721  44.695  53.799
82836W        W74760  12.736  30.743  53.335
82837W        W74761  23.720  30.706  51.976
82838W        W74762  15.264  12.768  50.149
82839W        W74763   5.286   0.754  51.962
82840W        W74764  45.691  12.764  52.873
82841W        W74765  35.241   4.263  50.149
82842W        W74766  25.214  42.682  50.153
82843W        W74767  32.722  39.215  49.710
82844W        W74768  18.755  10.267  53.330
82845W        W74769  36.706   4.772  52.414
82846W        W74770  34.711  11.757  51.068
82847W        W74771  31.723  44.685  51.953
82848W        W74772  20.219  33.722  51.950
82849W        W74773  34.230  42.725  50.164
82850W        W74774  47.703  18.759  52.405
82851W        W74775   6.779  19.262  51.077
82852W        W74776  29.230  41.706  52.894
82853W        W74777  38.217  32.216  49.685
82854W        W74778  20.245  13.760  49.701
82855W        W74779  16.270   1.271  52.412
82856W        W74780  27.228  33.735  51.043
82857W        W74781  12.765   8.247  51.066
82858W        W74782   2.253  47.710  51.056
82859W        W74783  41.688   7.241  51.508
82860W        W74784  24.750  40.213  50.137
82861W        W74785  32.228  22.757  52.892
82862W        W74786  18.740  24.222  51.513
82863W        W74787  31.238  19.249  52.872
82864W        W74788  44.681  29.711  51.038
82865W        W74789  17.266  43.688  50.127
82866W        W74790  31.200   3.746  51.987
82867W        W74791  26.735   3.746  53.324
82868W        W74792  18.752  29.736  50.163
82869W        W74793  12.256  22.255  52.410
82870W        W74794  35.210  38.215  50.613
82871W        W74795  25.249  10.252  50.603
82872W        W74796   5.247  42.223  53.792
82873W        W74797  37.229  18.241  49.671
82874W        W74798  43.710   6.254  50.583
82875W        W74799  12.238  29.723  49.678
82876W        W74800   8.263  45.680  52.410
82877W        W74801  44.192  43.227  52.864
82878W        W74802  27.214  20.266  51.053
82879W        W74803  18.723  46.206  51.078
82880W        W74804  42.201  19.240  51.988
82881W        W74805  40.715  13.759  50.134
82882W        W74806   9.778  32.239  53.789
82883W        W74807  15.726  14.241  51.983
82884W        W74808  24.251  28.706  52.425
82885W        W74809   4.745  15.752  52.439
82886W        W74810  30.210  40.696  49.674
82887W        W74811   9.740  25.729  53.777
82888W        W74812  15.272  36.223  51.068
82889W        W74813  27.221  34.197  52.436
82890W        W74814  12.737   3.249  50.146
82891W        W74815  31.242  39.209  50.163
82892W        W74816   2.248   2.760  52.446
82893W        W74817  44.689  27.741  49.694
82894W        W74818   5.265  18.226  51.066
82895W        W74819  22.239  30.217  53.340
82896W        W74820  28.207  30.740  52.864
82897W        W74821  35.192  46.692  51.504
82898W        W74822   0.785  33.719  51.986
82899W        W74823  30.236  34.238  53.805
82900W        W74824  20.722   5.270  52.441
82901W        W74825  28.224  15.265  52.896
82902W        W74826  48.181  19.734  49.672
82903W        W74827   7.753  34.222  53.350
82904W        W74828  10.264  27.727  51.052
82905W        W74829   2.251  44.216  49.673
82906W        W74830  29.202  11.755  53.786
82907W        W74831  12.255  37.194  53.326
82908W        W74832  13.739  11.269  49.689
82909W        W74833   3.283   7.287  49.675
82910W        W74834  21.245   4.256  51.972
82911W        W74835  10.744  38.187  53.333
82912W        W74836  47.672  37.216  53.348
82913W        W74837  35.240   5.747  53.353
82914W        W74838  38.233  39.205  51.975
82915W        W74839  24.745  21.215  51.514
82916W        W74840  17.230   4.275  51.946
82917W        W74841  43.686  38.714  52.901
82918W        W74842  23.756   8.284  50.610
82919W        W74843   4.277  12.247  50.577
82920W        W74844   4.769   6.267  53.812
82921W        W74845  28.708  18.741  53.347
82922W        W74846  27.248  20.217  52.406
82923W        W74847   1.283  21.744  52.885
82924W        W74848  36.698  11.747  50.166
82925W        W74849  46.722   5.276  50.137
82926W        W74850   5.257  47.688  51.036
82927W        W74851  30.236  16.245  52.899
82928W        W74852  17.760  48.176  50.585
82929W        W74853  39.218  23.221  52.419
82930W        W74854  10.278  18.755  49.693
82931W        W74855   3.245  22.757  53.805
82932W        W74856  34.231  42.217  51.963
82933W        W74857  26.220  17.732  49.694
82934W        W74858  30.235  39.212  51.517
82935W        W74859  14.739  42.713  53.326
82936W        W74860  30.700  10.755  51.043
82937W        W74861  38.722  37.228  50.129
82938W        W74862  28.728  34.742  52.874
82939W        W74863  35.238  26.226  53.790
82940W        W74864   2.285  15.742  53.785
82941W        W74865  35.203   0.290  51.491
82942W        W74866  41.699  32.715  53.777
82943W        W74867   2.283  43.200  53.328
82944W        W74868  45.678  30.220  52.446
82945W        W74869  21.750  36.735  53.356
82946W        W74870  27.706  41.702  52.863
82947W        W74871  47.215  36.224  53.320
82948W        W74872  12.774  45.681  50.137
82949W        W74873  46.193  27.228  51.518
82950W        W74874   6.251  16.744  53.782
82951W        W74875  12.748   8.266  50.121
82952W        W74876   6.258  44.676  51.041
82953W        W74877  10.233  25.214  52.882
82954W        W74878   1.753  15.244  51.059
82955W        W74879  31.245  38.710  51.978
82956W        W74880  40.216  46.685  51.064
82957W        W74881  22.716  38.735  50.134
82958W        W74882  47.216   4.748  50.598
82959W        W74883   8.274  40.233  51.511
82960W        W74884  10.737  11.755  51.067
82961W        W74885  33.729  28.205  51.508
82962W        W74886  41.685  26.209  51.983
82963W        W74887  19.718  22.239  53.782
82964W        W74888  15.738  13.269  52.875
82965W        W74889  42.220   1.296  51.967
82966W        W74890   0.753  22.223  50.599
82967W        W74891   6.783   8.274  50.580
82968W        W74892  25.733  19.241  50.584
82969W        W74893  33.244   4.255  52.444
82970W        W74894   4.749   9.737  50.588
82971W        W74895  12.758  46.214  50.129
82972W        W74896  22.238  11.757  50.151
82973W        W74897   4.746   3.764  49.673
82974W        W74898  23.748   9.273  51.049
82975W        W74899  17.232  43.727  51.502
82976W        W74900  28.708   4.275  51.502
82977W        W74901  15.752  13.753  51.974
82978W        W74902  21.236  44.221  51.947
82979W        W74903   7.780  29.210  52.421
82980W        W74904   8.783   6.739  52.902
82981W        W74905  35.200  32.231  52.422
82982W        W74906  33.742  11.272  53.349
82983W        W74907  25.224  16.768  52.901
82984W        W74908  30.240  36.735  53.779
82985W        W74909  13.278  45.698  49.709
82986W        W74910  31.217  42.710  49.682
82987W        W74911  36.240  21.750  52.893
82988W        W74912  11.272  39.731  52.422
82989W        W74913   9.772  41.185  50.607
82990W        W74914  40.227  25.242  53.331
82991W        W74915  38.209  27.247  50.599
82992W        W74916  39.693  20.266  50.159
82993W        W74917  32.715  26.748  49.680
82994W        W74918  10.282  12.773  50.139
82995W        W74919   1.262  28.721  51.066
82996W        W74920  30.709  32.710  51.521
82997W        W74921  23.233  23.733  52.890
82998W        W74922  35.723  48.177  52.405
82999W        W74923  42.724   8.744  53.354
83000W        W74924  35.715  42.213  52.885
83001W        W74925  25.749  17.237  50.152
83002W        W74926  19.762   6.746  53.783
83003W        W74927  38.734  40.215  52.896
83004W        W74928  23.218  26.711  51.503
83005W        W74929   0.256   5.283  50.602
83006W        W74930  37.689   5.775  49.682
83007W        W74931   4.256  43.686  51.529
83008W        W74932  34.197  23.249  51.038
83009W        W74933   3.753  37.237  51.508
83010W        W74934  25.727  39.204  50.619
83011W        W74935  21.245  39.725  53.342
83012W        W74936  20.253   1.253  51.955
83013W        W74937  21.719  23.724  53.342
83014W        W74938  12.270  28.237  51.981
83015W        W74939  29.229  45.714  50.142
83016W        W74940  45.703  44.702  53.805
83017W        W74941  12.743  31.200  51.985
83018W        W74942  17.755  32.725  52.442
83019W        W74943  29.709   6.772  50.621
83020W        W74944  45.720  38.694  52.884
83021W        W74945  48.172  29.230  52.892
83022W        W74946  19.759  14.258  52.439
83023W        W74947  31.725   2.268  51.492
83024W        W74948  38.193  23.738  49.671
83025W        W74949  24.710  44.684  51.530
83026W        W74950   9.779  17.722  51.510
83027W        W74951  45.197  29.203  50.609
83028W        W74952  45.221  38.201  53.782
83029W        W74953   9.235  19.260  52.884
83030W        W74954  36.208   8.783  49.680
83031W        W74955   0.258  12.734  53.815
83032W        W74956  36.228   1.249  50.157
83033W        W74957  34.229  21.245  52.442
83034W        W74958  47.192   9.747  52.430
83035W        W74959  11.244  33.225  50.600
83036W        W74960  24.231  22.733  51.055
83037W        W74961  14.741  16.232  51.050
83038W        W74962  25.208  48.217  51.506
83039W        W74963   0.768  39.732  53.341
83040W        W74964  10.242  34.234  51.498
83041W        W74965  14.242  34.742  51.067
83042W        W74966  18.247   0.279  50.126
83043W        W74967   4.284  21.715  51.968
83044W        W74968   9.264   7.261  50.144
83045W        W74969  18.753   0.753  51.057
83046W        W74970  41.684  30.716  49.708
83047W        W74971  40.711  36.226  50.121
83048W        W74972  31.208  42.705  53.338
83049W        W74973  21.758  32.227  51.046
83050W        W74974  39.686  20.761  53.810
83051W        W74975  29.718   6.278  49.668
83052W        W74976  12.242   2.759  53.353
83053W        W74977  22.740  22.749  50.588
83054W        W74978  30.220  45.215  50.594
83055W        W74979   4.244  32.739  49.672
83056W        W74980  24.758  13.265  51.079
83057W        W74981  35.204   1.277  49.680
83058W        W74982  42.686  43.685  52.876
83059W        W74983  35.728  20.238  50.577
83060W        W74984  28.211  42.189  50.133
83061W        W74985   5.742  30.213  53.808
83062W        W74986  41.187   0.255  53.355
83063W        W74987  18.266  29.239  50.134
83064W        W74988  18.724   4.754  49.695
83065W        W74989   9.758   3.258  53.812
83066W        W74990  45.695  28.245  51.524
83067W        W74991  16.232   7.784  51.984
83068W        W74992  31.234  32.226  50.587
83069W        W74993  39.730   9.236  52.427
83070W        W74994  22.251   5.768  50.600
83071W        W74995  35.720  27.216  52.424
83072W        W74996  17.759  36.715  50.603
83073W        W74997  29.720  22.732  53.781
83074W        W74998  22.261  27.208  52.873
83075W        W74999   3.744  32.712  50.597
83076W        W75000  35.239  35.227  50.142
83077W        W75001  18.760   2.753  51.963
83078W        W75002  42.702  28.221  50.589
83079W        W75003  12.731   1.251  53.795
83080W        W75004  31.227  34.242  49.701
83081W        W75005  32.727  30.733  52.865
83082W        W75006  10.733  44.195  50.582
83083W        W75007  38.686   8.749  50.618
83084W        W75008  35.696   1.293  52.892
83085W        W75009  39.223  17.263  52.429
83086W        W75010   6.275  16.234  52.886
83087W        W75011  21.238  35.723  53.806
83088W        W75012  36.735  17.739  50.149
83089W        W75013  17.232   7.256  52.901
83090W        W75014  19.251  19.732  50.620
83091W        W75015  15.244  11.266  51.497
83092W        W75016  25.751  11.255  52.884
83093W        W75017  44.206   3.753  51.502
83094W        W75018  41.683  42.701  52.899
83095W        W75019   7.238   9.752  51.947
83096W        W75020  26.225   7.781  53.336
83097W        W75021  23.235   7.754  53.323
83098W        W75022  34.708  22.748  52.870
83099W        W75023   3.793  44.188  51.530
83100W        W75024  14.266  44.208  52.866
83101W        W75025   8.738  45.707  51.983
83102W        W75026  24.727  18.735  49.674
83103W        W75027   0.780  14.242  51.968
83104W        W75028  35.212  35.738  52.864
83105W        W75029  20.226  13.232  50.618
83106W        W75030  12.759  13.768  51.983
83107W        W75031  24.722  44.193  52.430
83108W        W75032  21.259  13.228  51.502
83109W        W75033   5.283  34.203  51.521
83110W        W75034   6.768  17.749  50.601
83111W        W75035  21.250  48.210  53.799
83112W        W75036  23.724  16.760  50.136
83113W        W75037  26.747   1.776  53.341
83114W        W75038  47.712  30.240  53.335
83115W        W75039  32.218  39.189  51.040
83116W        W75040   8.258  12.262  51.526
83117W        W75041   7.272  17.244  53.359
83118W        W75042  46.206  16.249  52.898
83119W        W75043  30.240   3.267  50.159
83120W        W75044   8.762  37.718  50.613
83121W        W75045  43.701  22.217  50.583
83122W        W75046   9.755  27.210  49.686
83123W        W75047   5.251  38.199  49.673
83124W        W75048   8.756  30.739  52.426
83125W        W75049  20.248  45.212  51.492
83126W        W75050  14.249  46.188  53.340
83127W        W75051   0.754  45.189  50.139
83128W        W75052   1.288  24.255  53.781
83129W        W75053  27.251  48.183  50.620
83130W        W75054  27.724   5.249  53.341
83131W        W75055  13.249  34.196  52.903
83132W        W75056  42.685  39.228  51.972
83133W        W75057  25.752  34.742  51.073
83134W        W75058  24.226  11.280  51.494
83135W        W75059  20.252  22.220  51.497
83136W        W75060  31.223  33.226  51.530
83137W        W75061  41.704  23.236  52.426
83138W        W75062  45.684  35.192  50.613
83139W        W75063   9.747  36.739  52.870
83140W        W75064  16.740   9.235  52.863
83141W        W75065   9.271  27.740  51.948
83142W        W75066  12.273  19.766  51.980
83143W        W75067   0.766  30.246  50.619
83144W        W75068  16.266   9.777  52.436
83145W        W75069  15.236   7.752  50.137
83146W        W75070  22.739  37.728  52.886
83147W        W75071   0.283  31.245  51.981
83148W        W75072   5.245  20.265  50.614
83149W        W75073   4.754  30.740  49.685
83150W        W75074  32.728   2.764  53.359
83151W        W75075  46.181   7.763  51.980
83152W        W75076  27.245  47.191  51.045
83153W        W75077  39.706  16.259  53.815
83154W        W75078  40.687  23.734  53.342
83155W        W75079   0.778  40.703  51.976
83156W        W75080  47.681   3.272  51.535
83157W        W75081  36.237  25.728  52.901
83158W        W75082   4.770   2.792  50.152
83159W        W75083  36.211  33.712  53.773
83160W        W75084  39.187  13.771  52.409
83161W        W75085  26.729  46.202  53.323
83162W        W75086  44.710  39.235  51.516
83163W        W75087  21.242   5.773  50.578
83164W        W75088  19.237  18.759  52.896
83165W        W75089  33.207  23.239  51.034
83166W        W75090  20.751  11.743  53.343
83167W        W75091  41.208   0.273  50.156
83168W        W75092  42.199  15.236  50.591
83169W        W75093  33.727  44.218  49.682
83170W        W75094  44.693  36.706  51.512
83171W        W75095   2.295  17.755  51.977
83172W        W75096  36.233   4.268  50.612
83173W        W75097   4.253  14.746  53.790
83174W        W75098  35.221  15.773  53.791
83175W        W75099   7.241  45.695  50.161
83176W        W75100  36.713   0.250  53.803
83177W        W75101  38.720  29.235  53.779
83178W        W75102   0.773  36.714  51.512
83179W        W75103  39.214  40.207  53.343
83180W        W75104  35.231  34.225  53.794
83181W        W75105  43.724  20.725  53.350
83182W        W75106   3.286  20.250  52.860
83183W        W75107  45.703  41.701  50.588
83184W        W75108  10.751  28.213  53.797
83185W        W75109   7.760  18.239  53.775
83186W        W75110  11.743  15.253  51.524
83187W        W75111  29.207  26.707  53.791
83188W        W75112  23.751  21.724  50.129
83189W        W75113   0.252   2.262  49.694
83190W        W75114  40.226   8.780  51.954
83191W        W75115   0.266  39.722  52.436
83192W        W75116  47.692  33.232  49.702
83193W        W75117  16.754  19.758  53.814
83194W        W75118  42.686  23.737  49.665
83195W        W75119   2.267  35.198  53.811
83196W        W75120  48.192  25.214  50.132
83197W        W75121  46.187  37.713  53.779
83198W        W75122   6.271  31.234  49.697
83199W        W75123   4.249  29.732  51.494
83200W        W75124   3.767  28.728  51.045
83201W        W75125  19.761   8.253  49.685
83202W        W75126  47.174  34.708  50.148
83203W        W75127  20.225  32.715  51.068
83204W        W75128   0.296  15.233  51.527
83205W        W75129  15.750  23.757  51.958
83206W        W75130  43.700   0.270  51.983
83207W        W75131  43.199  21.248  53.330
83208W        W75132  36.693  42.210  52.448
83209W        W75133  11.274  37.704  51.071
83210W        W75134   8.760  10.242  53.789
83211W        W75135  27.230  40.724  51.517
83212W        W75136  16.748  42.206  53.779
83213W        W75137  42.193  41.189  51.072
83214W        W75138  20.734  17.223  53.350
83215W        W75139  34.240  12.754  53.778
83216W        W75140  24.216  25.735  51.976
83217W        W75141  28.721   6.241  53.324
83218W        W75142  18.223  17.255  52.899
83219W        W75143  35.206  39.187  49.707
83220W        W75144   9.762  22.759  50.123
83221W        W75145  30.744  37.692  53.817
83222W        W75146  31.701   8.241  53.781
83223W        W75147  16.751  10.277  51.975
83224W        W75148  16.227  42.204  51.036
83225W        W75149  30.706  32.717  52.887
83226W        W75150  17.232  23.247  51.950
83227W        W75151  14.773   0.269  51.521
83228W        W75152  48.194   3.776  52.414
83229W        W75153   1.269   0.289  51.535
83230W        W75154  39.194   1.254  50.163
83231W        W75155  20.722  13.240  52.443
83232W        W75156   7.769  12.238  51.050
83233W        W75157   9.282  13.237  51.952
83234W        W75158  27.742  14.251  53.812
83235W        W75159  10.739  40.222  50.596
83236W        W75160  33.722  22.217  49.676
83237W        W75161   4.767  47.202  53.358
83238W        W75162   9.760   3.759  50.597
83239W        W75163  29.207  21.725  53.328
83240W        W75164  46.710  22.247  52.436
83241W        W75165  17.262  44.186  49.695
83242W        W75166  14.747  21.735  51.962
83243W        W75167   8.273  40.706  52.430
83244W        W75168   8.250  18.749  52.890
83245W        W75169  22.238  11.749  49.672
83246W        W75170  19.253  38.706  49.675
83247W        W75171  11.773  18.763  52.429
83248W        W75172  41.684   0.782  51.516
83249W        W75173   0.281   7.739  50.157
83250W        W75174   3.268  29.247  50.163
83251W        W75175   3.765  41.205  50.141
83252W        W75176  28.253  34.229  53.807
83253W        W75177  23.712  39.723  50.591
83254W        W75178  16.736  38.727  53.355
83255W        W75179  21.247  25.754  50.157
83256W        W75180   8.766  34.195  49.706
83257W        W75181  43.715  10.258  51.527
83258W        W75182  39.718  33.211  49.709
83259W        W75183  11.773  32.237  51.977
83260W        W75184  34.234  27.232  52.422
83261W        W75185   6.264  40.699  53.791
83262W        W75186  39.190  34.723  52.424
83263W        W75187  13.750  29.246  52.879
83264W        W75188  45.190  18.732  51.067
83265W        W75189   7.263  30.733  51.978
83266W        W75190  20.223  14.264  50.608
83267W        W75191   9.239   5.262  49.672
83268W        W75192   6.752  15.754  52.445
83269W        W75193  36.717  46.692  51.066
83270W        W75194  26.713  33.741  49.678
83271W        W75195  20.256  35.695  49.709
83272W        W75196  35.709   3.775  50.578
83273W        W75197  22.756  22.243  50.144
83274W        W75198  23.755  40.207  51.950
83275W        W75199  39.714  41.196  50.133
83276W        W75200  46.213  20.226  51.527
83277W        W75201  19.736  37.735  51.981
83278W        W75202  11.237  46.186  51.038
83279W        W75203   3.762  34.206  50.613
83280W        W75204  13.264  29.744  53.352
83281W        W75205  28.745  21.735  53.776
83282W        W75206   0.757  31.213  50.581
83283W        W75207  37.213  23.257  50.122
83284W        W75208  22.234  46.177  53.332
83285W        W75209   3.765  12.254  53.344
83286W        W75210  47.178  37.729  50.157
83287W        W75211  14.748  14.767  52.422
83288W        W75212  33.237  26.221  52.439
83289W        W75213   5.783  26.209  49.700
83290W        W75214  35.736  13.267  51.039
83291W        W75215  22.717  18.241  51.049
83292W        W75216  38.201  32.708  49.670
83293W        W75217   6.766  22.248  52.408
83294W        W75218  13.254  42.186  51.984
83295W        W75219   3.273  38.721  51.497
83296W        W75220  13.763  12.269  51.522
83297W        W75221  18.264  35.735  53.343
83298W        W75222  37.727  38.709  51.964
83299W        W75223  24.718  20.245  51.983
83300W        W75224   2.755  41.215  50.161
83301W        W75225   0.776   6.280  52.903
83302W        W75226  10.766  24.214  51.499
83303W        W75227  39.686  36.219  52.865
83304W        W75228  23.733  23.732  53.797
83305W        W75229  36.233  22.237  53.785
83306W        W75230  34.233  20.266  53.773
83307W        W75231  33.198  13.232  52.891
83308W        W75232  26.236  39.729  52.419
83309W        W75233  35.228  35.197  53.341
83310W        W75234  24.754  29.225  52.413
83311W        W75235  47.681  47.681  52.430
83312W        W75236  17.258  12.765  49.677
83313W        W75237  47.711  14.771  53.794
83314W        W75238  12.751  37.231  50.607
83315W        W75239  14.768   3.789  50.129
83316W        W75240  17.725  37.223  52.442
83317W        W75241   6.253  17.724  51.992
83318W        W75242  25.730   5.263  51.038
83319W        W75243  19.728  14.760  51.051
83320W        W75244  28.204  31.247  50.584
83321W        W75245  17.243  38.198  50.150
83322W        W75246  25.251   6.246  51.074
83323W        W75247  31.717  29.742  52.448
83324W        W75248   8.265  43.725  50.608
83325W        W75249  14.769  24.737  50.146
83326W        W75250  27.243  45.195  52.901
83327W        W75251  11.243   2.787  49.682
83328W        W75252  22.243  33.727  53.349
83329W        W75253  27.719  21.244  52.415
83330W        W75254  14.765  43.182  52.897
83331W        W75255  11.764  10.734  52.898
83332W        W75256  43.188  22.715  51.052
83333W        W75257  40.196  38.704  51.978
83334W        W75258   9.236   7.754  51.498
83335W        W75259  45.706  25.742  50.145
83336W        W75260  11.758  31.733  50.138
83337W        W75261  11.751   5.742  50.585
83338W        W75262   4.758  29.216  51.496
83339W        W75263  13.767  23.754  53.317
83340W        W75264  36.198  13.248  50.137
83341W        W75265   8.754  28.242  52.407
83342W        W75266  47.189  13.734  50.597
83343W        W75267  42.204  19.766  51.986
83344W        W75268  44.217  31.746  51.511
83345W        W75269  13.244  11.744  52.410
83346W        W75270   2.761  28.713  53.357
83347W        W75271   0.277  20.748  50.144
83348W        W75272  20.259  19.230  50.155
83349W        W75273  38.202  41.685  52.868
83350W        W75274  29.734  43.204  51.970
83351W        W75275  39.692  35.213  51.495
83352W        W75276   5.285  28.244  51.957
83353W        W75277   6.753  19.242  50.136
83354W        W75278  22.232   4.260  53.354
83355W        W75279  14.229  35.697  52.901
83356W        W75280  35.216  34.232  51.532
83357W        W75281  47.685   3.774  52.406
83358W        W75282   6.282  36.223  52.890
83359W        W75283  21.252  26.746  51.042
83360W        W75284  37.715  34.733  51.058
83361W        W75285   1.252  25.717  53.322
83362W        W75286  40.228   0.278  53.332
83363W        W75287   3.261  13.240  51.976
83364W        W75288  41.189  45.216  53.805
83365W        W75289  12.761  47.708  53.775
83366W        W75290  14.227   9.266  51.534
83367W        W75291  13.229  41.690  52.435
83368W        W75292  42.686  44.202  52.877
83369W        W75293  39.205  16.766  49.686
83370W        W75294  29.210  14.228  52.899
83371W        W75295  22.248  31.742  52.863
83372W        W75296  40.690   6.249  52.887
83373W        W75297  18.244   4.247  53.320
83374W        W75298  35.692  42.694  51.048
83375W        W75299  25.228   7.755  51.492
83376W        W75300   4.758  45.692  50.138
83377W        W75301  40.200  43.698  50.139
83378W        W75302  10.761  46.683  49.674
83379W        W75303  44.702  11.765  53.359
83380W        W75304  19.750   7.787  49.671
83381W        W75305   0.763   0.270  50.580
83382W        W75306  22.737  39.213  50.614
83383W        W75307  22.221  23.245  51.955
83384W        W75308  21.234  15.260  49.672
83385W        W75309  30.218  34.710  52.418
83386W        W75310  22.745   7.250  52.436
83387W        W75311  35.716  27.246  53.325
83388W        W75312   1.793   9.761  53.329
83389W        W75313  27.716  43.686  50.607
83390W        W75314  19.748   7.738  51.503
83391W        W75315   2.778  31.721  50.578
83392W        W75316  12.277  41.222  52.895
83393W        W75317   7.259   3.774  52.416
83394W        W75318  33.710  28.216  53.360
83395W        W75319  37.725  31.243  51.509
83396W        W75320  43.223  38.210  52.435
83397W        W75321  30.748  33.729  50.122
83398W        W75322   6.745  36.217  50.135
83399W        W75323  41.723   2.772  53.345
83400W        W75324   8.258   2.753  52.406
83401W        W75325   7.276  24.720  51.071
83402W        W75326  18.755  47.720  51.970
83403W        W75327  47.218  27.214  53.338
83404W        W75328  39.725   2.273  53.354
83405W        W75329  31.709  34.208  51.958
83406W        W75330  34.223  34.207  53.797
83407W        W75331  31.235  45.685  53.816
83408W        W75332  46.691  12.269  52.874
83409W        W75333  25.739  25.245  51.503
83410W        W75334   5.264  47.200  51.067
83411W        W75335  43.700  26.753  51.037
83412W        W75336  48.186  40.696  52.904
83413W        W75337  26.219  20.757  52.904
83414W        W75338  27.713  29.210  51.057
83415W        W75339  38.216  34.241  53.359
83416W        W75340  10.770  42.704  49.680
83417W        W75341  30.236  33.716  52.895
83418W        W75342  38.215  37.202  52.876
83419W        W75343  29.734  16.738  51.503
83420W        W75344  30.702  33.698  51.049
83421W        W75345  28.706  19.759  53.789
83422W        W75346  30.206  29.251  53.810
83423W        W75347  47.703  33.725  52.881
83424W        W75348   2.260  31.220  52.404
83425W        W75349  48.198  35.229  51.047
83426W        W75350  26.254  26.712  52.408
83427W        W75351  15.758  45.196  49.707
83428W        W75352  10.744   2.292  53.341
83429W        W75353  34.702  30.736  53.809
83430W        W75354  26.708   4.268  52.885
83431W        W75355  39.212  45.675  53.350
83432W        W75356   5.289   1.771  51.981
83433W        W75357   8.271  34.736  51.076
83434W        W75358  27.727  45.215  50.133
83435W        W75359   1.773  28.712  50.587
83436W        W75360  32.205  26.750  52.420
83437W        W75361  29.721  17.751  51.037
83438W        W75362  44.718  41.708  51.073
83439W        W75363  10.278  29.718  51.963
83440W        W75364   5.253  30.720  51.036
83441W        W75365  21.259  43.217  53.792
83442W        W75366  16.737  22.261  50.611
83443W        W75367  38.714  18.229  50.584
83444W        W75368  13.232  22.749  52.432
83445W        W75369   4.259  16.731  52.883
83446W        W75370  27.224  26.215  53.800
83447W        W75371  30.233   8.759  53.785
83448W        W75372  36.735  33.725  49.680
83449W        W75373   7.279  34.737  51.065
83450W        W75374  41.688  26.207  51.065
83451W        W75375  47.674  21.730  50.578
83452W        W75376   8.750  25.209  53.797
83453W        W75377   8.758  43.705  51.534
83454W        W75378  25.724  22.734  51.523
83455W        W75379  35.227  24.746  52.904
83456W        W75380  44.715  40.201  51.984
83457W        W75381  17.739  44.703  53.814
83458W        W75382  34.698   9.743  53.797
83459W        W75383  33.717   6.749  51.044
83460W        W75384  16.762   0.775  51.513
83461W        W75385   8.283  27.232  50.593
83462W        W75386  22.221  36.198  52.435
83463W        W75387   1.268  27.705  51.049
83464W        W75388   4.287  18.751  52.415
83465W        W75389   3.765  40.700  52.865
83466W        W75390  26.710  30.731  53.329
83467W        W75391  39.215  28.208  51.965
83468W        W75392  11.261  18.733  53.792
83469W        W75393  46.711  21.725  51.960
83470W        W75394  45.717  14.750  51.044
83471W        W75395  28.244  43.200  51.525
83472W        W75396   9.770  43.708  52.432
83473W        W75397  28.242  17.728  51.511
83474W        W75398  41.689  13.765  52.865
83475W        W75399   0.292  16.767  51.966
83476W        W75400  31.231   8.737  50.619
83477W        W75401  10.264  33.221  49.694
83478W        W75402  18.262   0.291  52.890
83479W        W75403  11.752  17.260  49.704
83480W        W75404  26.251   1.252  51.073
83481W        W75405  12.230  17.726  50.162
83482W        W75406  33.231  16.233  49.705
83483W        W75407   9.247  22.230  53.327
83484W        W75408  42.193  36.230  53.322
83485W        W75409  37.215  21.732  51.060
83486W        W75410  48.195  18.234  52.871
83487W        W75411   6.276  28.739  52.404
83488W        W75412  30.220   4.762  51.066
83489W        W75413   7.243  21.734  51.984
83490W        W75414  23.223   2.780  52.423
83491W        W75415  42.213   1.775  51.053
83492W        W75416  14.731  26.246  52.859
83493W        W75417  36.705  15.755  50.613
83494W        W75418  46.177  25.747  52.872
83495W        W75419  10.759   0.253  51.043
83496W        W75420  46.196  41.217  53.802
83497W        W75421  36.196   3.793  53.787
83498W        W75422  41.185  30.726  50.136
83499W        W75423   3.250  14.745  50.136
83500W        W75424  33.204  20.748  50.580
83501W        W75425  38.705  44.723  51.511
83502W        W75426  15.226  43.694  50.606
83503W        W75427  32.709  33.204  49.705
83504W        W75428   4.292  43.217  51.976
83505W        W75429  31.739  39.695  49.665
83506W        W75430  29.738  15.239  50.593
83507W        W75431  31.701  42.216  52.900
83508W        W75432  18.261  10.773  50.160
83509W        W75433   6.283  41.194  51.963
83510W        W75434   9.735  32.705  51.967
83511W        W75435  40.184  26.710  51.034
83512W        W75436  13.735  45.682  49.669
83513W        W75437   6.257  31.741  50.609
83514W        W75438  30.217  13.775  51.060
83515W        W75439   1.765  20.734  50.157
83516W        W75440  46.178  46.184  51.039
83517W        W75441  14.754  46.182  50.136
83518W        W75442  35.733   0.273  52.447
83519W        W75443   5.753   1.294  53.336
83520W        W75444  23.753  12.268  51.491
83521W        W75445  18.257  27.712  53.349
83522W        W75446  45.179  19.723  53.336
83523W        W75447  41.187  24.741  51.533
83524W        W75448  25.729   4.755  51.051
83525W        W75449  13.774  28.730  53.772
83526W        W75450  42.713   4.254  52.444
83527W        W75451  24.221   9.774  53.777
83528W        W75452  27.718  34.230  52.894
83529W        W75453  14.775   3.259  52.898
83530W        W75454  23.226   6.257  50.622
83531W        W75455   6.771   8.269  53.778
83532W        W75456  39.707  19.764  51.067
83533W        W75457  12.764  32.238  53.357
83534W        W75458  15.728  34.698  51.533
83535W        W75459  44.221   1.287  52.406
83536W        W75460  10.236  26.227  51.506
83537W        W75461  17.238  36.716  53.353
83538W        W75462   2.269  30.226  50.161
83539W        W75463  48.208  43.707  53.321
83540W        W75464   3.294  18.730  51.961
83541W        W75465  43.228  44.714  51.506
83542W        W75466  40.220  37.213  50.148
83543W        W75467  26.214  10.745  50.579
83544W        W75468  27.254  45.688  51.037
83545W        W75469  31.218  26.710  51.050
83546W        W75470  27.236  43.679  50.151
83547W        W75471   6.251  21.248  49.699
83548W        W75472  30.747  47.671  50.590
83549W        W75473  46.190   8.257  52.430
83550W        W75474  36.235  35.717  50.137
83551W        W75475   1.761  43.724  53.316
83552W        W75476  45.699  36.200  51.513
83553W        W75477  12.232  13.741  52.447
83554W        W75478  19.765  34.219  52.897
83555W        W75479  33.721  15.259  52.875
83556W        W75480  35.215  14.242  53.317
83557W        W75481   9.746   2.765  51.508
83558W        W75482  33.195   7.742  51.983
83559W        W75483  37.734   6.256  53.361
83560W        W75484  11.233   0.756  51.491
83561W        W75485  43.202  40.209  51.984
83562W        W75486   4.768  25.234  50.605
83563W        W75487  43.182  39.733  51.508
83564W        W75488  21.229   2.276  50.588
83565W        W75489  30.700  28.736  51.953
83566W        W75490  17.245  37.227  51.975
83567W        W75491   8.750  21.743  50.132
83568W        W75492   8.757  21.761  53.798
83569W        W75493  40.695  34.226  53.803
83570W        W75494  15.729  20.218  51.074
83571W        W75495   5.759   6.741  49.702
83572W        W75496  10.236   2.766  50.603
83573W        W75497   7.261  22.734  51.968
83574W        W75498  46.699  31.725  49.667
83575W        W75499  41.206  22.262  51.968
83576W        W75500  23.242   5.289  53.808
83577W        W75501  45.711  20.720  51.072
83578W        W75502   4.745  18.720  49.707
83579W        W75503  16.767  32.715  52.864
83580W        W75504  16.252  42.687  50.134
83581W        W75505  20.731   2.269  50.612
83582W        W75506  40.188   6.771  52.421
83583W        W75507  29.705  41.701  53.339
83584W        W75508   4.778  24.226  51.990
83585W        W75509  30.210   4.761  52.867
83586W        W75510  33.209  13.251  51.510
83587W        W75511  18.724  13.266  51.044
83588W        W75512  23.233  28.247  49.699
83589W        W75513  17.770  42.704  51.986
83590W        W75514  41.701  28.239  51.518
83591W        W75515  41.211  14.764  50.580
83592W        W75516  20.242  45.189  53.803
83593W        W75517  23.233  41.223  51.984
83594W        W75518   6.776   6.268  49.665
83595W        W75519  19.225  26.241  51.534
83596W        W75520   9.278  35.717  51.527
83597W        W75521  47.716  29.726  51.531
83598W        W75522  17.232  24.715  52.407
83599W        W75523  27.235  22.214  51.062
83600W        W75524  15.761  12.278  53.817
83601W        W75525  44.194   3.272  52.406
83602W        W75526  44.697  39.721  53.348
83603W        W75527  39.230  42.221  49.689
83604W        W75528  42.721  44.221  49.697
83605W        W75529   1.772  40.222  49.683
83606W        W75530   3.274  30.740  53.350
83607W        W75531  47.680   5.773  51.532
83608W        W75532  20.240  46.696  51.072
83609W        W75533  24.257  28.709  51.507
83610W        W75534  36.216  44.684  52.430
83611W        W75535   3.773  46.715  53.781
83612W        W75536   7.286  34.712  51.960
83613W        W75537  39.209  28.222  51.519
83614W        W75538   8.753   0.789  49.704
83615W        W75539  13.258   9.770  51.055
83616W        W75540  32.243  32.717  52.876
83617W        W75541   8.737   0.797  50.598
83618W        W75542   6.256  41.231  52.883
83619W        W75543  43.720  42.210  51.069
83620W        W75544  11.235   0.258  53.346
83621W        W75545   8.771   3.789  53.347
83622W        W75546  16.236  33.220  53.331
83623W        W75547  38.722  14.271  53.352
83624W        W75548  46.208  39.715  51.985
83625W        W75549  44.699   6.258  51.515
83626W        W75550  43.699  24.712  53.786
83627W        W75551  34.727   6.746  51.986
83628W        W75552  18.721   4.290  52.900
83629W        W75553  29.228   4.783  52.866
83630W        W75554   5.768  12.260  51.984
83631W        W75555  28.752  11.241  53.786
83632W        W75556   7.242  21.222  49.699
83633W        W75557  16.224  20.227  51.966
83634W        W75558   6.754  21.240  51.525
83635W        W75559  22.216  12.271  51.041
83636W        W75560  38.690  35.239  51.965
83637W        W75561  22.732  14.746  50.151
83638W        W75562  43.199  31.714  51.048
83639W        W75563  44.225  29.704  53.341
83640W        W75564  19.749  27.239  53.773
83641W        W75565   5.266   1.249  50.132
83642W        W75566  27.250  36.721  53.335
83643W        W75567  46.722  32.232  53.791
83644W        W75568  42.690  39.220  51.519
83645W        W75569  45.691   7.772  53.330
83646W        W75570  48.218  21.742  53.359
83647W        W75571  14.766  16.265  51.968
83648W        W75572  31.731  43.699  51.061
83649W        W75573  34.210  41.206  53.793
83650W        W75574  32.244  10.248  51.948
83651W        W75575  17.223   0.250  50.601
83652W        W75576  47.191  47.715  49.665
83653W        W75577  43.683  46.706  49.676
83654W        W75578  36.211  13.754  50.618
83655W        W75579  47.713  25.724  51.979
83656W        W75580  12.279   5.279  51.060
83657W        W75581  19.231  25.247  53.319
83658W        W75582  26.222  15.766  50.131
83659W        W75583  42.721  13.767  52.897
83660W        W75584   2.747  21.222  53.776
83661W        W75585  19.732  27.219  52.448
83662W        W75586  15.739   8.259  52.421
83663W        W75587   5.243  15.766  51.971
83664W        W75588   9.254  24.744  50.587
83665W        W75589  30.732  10.772  51.973
83666W        W75590  39.715  24.223  49.690
83667W        W75591  19.734  24.212  52.861
83668W        W75592  47.680  46.212  53.811
83669W        W75593  47.674  47.210  53.806
83670W        W75594   4.751  23.734  49.704
83671W        W75595  20.222  22.728  49.686
83672W        W75596   4.791  25.712  53.337
83673W        W75597   8.783  32.708  53.788
83674W        W75598   1.785  30.710  52.441
83675W        W75599  46.203  34.730  51.962
83676W        W75600  47.196  41.689  51.953
83677W        W75601  36.210  17.740  51.512
83678W        W75602   4.772  28.234  49.677
83679W        W75603  44.679  11.733  51.077
83680W        W75604  21.228  45.713  53.772
83681W        W75605  42.684  39.730  52.896
83682W        W75606  26.208  30.219  50.603
83683W        W75607  23.725  20.259  53.319
83684W        W75608  44.689  25.738  50.160
83685W        W75609   8.738   4.748  51.535
83686W        W75610   7.238  46.690  49.676
83687W        W75611   8.262  26.230  49.701
83688W        W75612  10.766  36.735  52.898
83689W        W75613  18.259  39.701  50.605
83690W        W75614  24.229  23.224  53.784
83691W        W75615  25.226  16.759  50.602
83692W        W75616  31.731   3.782  49.683
83693W        W75617  42.724  21.731  51.517
83694W        W75618  22.722  20.726  53.811
83695W        W75619  47.201  14.256  52.443
83696W        W75620  39.696  15.735  51.521
83697W        W75621  18.231  36.199  51.034
83698W        W75622   6.244  19.220  49.685
83699W        W75623  16.766  11.737  53.789
83700W        W75624  21.727  34.194  50.582
83701W        W75625  19.740  28.205  52.879
83702W        W75626   2.257  26.707  52.407
83703W        W75627  22.216  17.259  52.447
83704W        W75628  26.720  35.717  52.444
83705W        W75629  26.236  44.710  51.521
83706W        W75630  21.222  36.725  51.972
83707W        W75631  22.232   1.749  51.533
83708W        W75632   2.257  19.255  52.424
83709W        W75633  13.737  14.758  49.693
83710W        W75634  18.243  46.182  52.897
83711W        W75635  45.209  33.709  51.522
83712W        W75636  36.723  20.247  53.805
83713W        W75637  31.739  21.726  51.961
83714W        W75638  11.739  42.709  50.138
83715W        W75639  25.221  32.200  51.983
83716W        W75640  21.757  23.235  50.594
83717W        W75641   2.778   8.777  50.163
83718W        W75642  19.266  48.217  51.498
83719W        W75643  33.724  12.770  51.986
83720W        W75644  42.226   3.751  52.883
83721W        W75645  32.237  25.231  51.977
83722W        W75646  36.196  17.748  49.704
83723W        W75647  12.760  20.222  53.776
83724W        W75648   4.272   9.263  51.525
83725W        W75649  45.207  21.761  49.674
83726W        W75650  38.188   2.290  51.491
83727W        W75651  41.189  15.243  51.077
83728W        W75652  24.219  35.237  52.411
83729W        W75653   6.249  11.750  52.413
83730W        W75654  14.730  34.239  51.970
83731W        W75655   9.283  34.236  51.951
83732W        W75656  10.262  42.703  53.355
83733W        W75657  20.747   9.752  52.413
83734W        W75658  35.692  26.749  51.987
83735W        W75659  14.237  16.762  49.685
83736W        W75660  16.246  40.228  50.128
83737W        W75661  36.226  27.731  53.339
83738W        W75662  27.246   1.788  50.595
83739W        W75663   7.244  11.281  52.439
83740W        W75664  33.240  25.727  51.958
83741W        W75665   5.762  31.707  51.988
83742W        W75666  34.211  20.249  50.589
83743W        W75667  21.216  33.221  53.325
83744W        W75668  34.239   5.778  51.517
83745W        W75669   9.784  37.715  49.692
83746W        W75670  33.718  44.679  52.415
83747W        W75671  37.205   1.295  51.051
83748W        W75672  36.215  25.208  53.336
83749W        W75673   7.272  11.251  51.076
83750W        W75674  42.202  32.706  52.435
83751W        W75675  48.218   9.244  52.445
83752W        W75676  18.233  23.731  50.616
83753W        W75677   4.752  43.221  51.975
83754W        W75678  31.207  31.241  53.803
83755W        W75679  31.725  22.221  53.333
83756W        W75680   0.753   0.269  53.772
83757W        W75681  35.730  20.236  52.876
83758W        W75682   6.285   1.747  53.339
83759W        W75683  23.754   5.260  51.036
83760W        W75684  42.697  31.225  51.054
83761W        W75685   7.286  46.175  52.902
83762W        W75686  44.704  10.745  51.054
83763W        W75687  40.196  11.734  51.984
83764W        W75688  10.276  47.212  51.067
83765W        W75689  34.217   7.768  49.677
83766W        W75690  20.222   8.247  51.062
83767W        W75691  28.253  40.721  50.155
83768W        W75692  25.234  25.223  51.075
83769W        W75693  37.688  23.751  53.775
83770W        W75694  43.224  29.702  51.983
83771W        W75695  23.261   0.250  49.704
83772W        W75696  36.223  43.216  52.860
83773W        W75697  34.230  38.233  53.339
83774W        W75698  41.690  38.734  49.670
83775W        W75699   3.783  28.241  51.491
83776W        W75700  25.748  20.251  53.794
83777W        W75701  36.214  21.751  51.053
83778W        W75702   7.245  46.198  53.336
83779W        W75703  35.200  39.691  51.077
83780W        W75704   9.766  34.211  49.709
83781W        W75705  17.262  45.215  52.896
83782W        W75706  33.710  14.751  53.774
83783W        W75707  11.758  47.699  52.867
83784W        W75708  31.718   4.253  50.596
83785W        W75709  14.252  16.750  52.874
83786W        W75710   5.751  17.758  50.125
83787W        W75711  17.242  26.223  50.135
83788W        W75712  18.226  12.254  50.126
83789W        W75713  25.752  40.186  51.966
83790W        W75714  44.695   4.784  49.697
83791W        W75715   9.749   8.268  51.969
83792W        W75716  38.207  47.213  50.593
83793W        W75717  16.737  41.711  51.964
83794W        W75718  22.246  40.704  53.802
83795W        W75719  14.262  43.679  50.609
83796W        W75720  20.249  39.692  53.811
83797W        W75721   0.776  19.226  50.609
83798W        W75722  16.743  14.254  50.131
83799W        W75723  32.245  26.254  51.974
83800W        W75724  40.704  20.240  50.622
83801W        W75725  28.225  45.706  49.692
83802W        W75726   4.246  19.746  50.142
83803W        W75727  16.760   1.282  52.882
83804W        W75728   3.748   9.770  51.972
83805W        W75729  42.695  22.229  51.041
83806W        W75730  48.203   9.279  53.813
83807W        W75731  10.277  43.693  49.700
83808W        W75732  28.721  19.227  50.620
83809W        W75733  28.718  37.210  51.955
83810W        W75734   6.279  13.231  52.437
83811W        W75735  17.764  37.690  49.678
83812W        W75736  41.204  33.230  51.991
83813W        W75737  13.231  30.229  52.415
83814W        W75738  10.255  25.216  51.982
83815W        W75739  33.722  14.274  49.698
83816W        W75740  19.237  47.184  50.582
83817W        W75741  21.242  33.196  51.492
83818W        W75742  41.187  13.771  51.974
83819W        W75743  30.211  19.730  53.778
83820W        W75744  36.206  47.204  52.871
83821W        W75745  14.267  47.711  49.689
83822W        W75746  30.220   4.752  50.596
83823W        W75747  24.238  47.703  50.581
83824W        W75748  29.720  34.697  50.609
83825W        W75749  28.723  28.735  51.057
83826W        W75750  42.191  20.253  52.446
83827W        W75751  44.189  21.227  50.151
83828W        W75752  33.697  36.717  53.817
83829W        W75753  11.780  16.762  51.513
83830W        W75754  44.214  45.194  50.591
83831W        W75755  21.234  33.696  49.697
83832W        W75756  42.686   2.253  51.040
83833W        W75757  38.701   6.750  50.137
83834W        W75758  40.219   4.748  50.586
83835W        W75759  10.277  21.750  51.533
83836W        W75760  33.730  47.714  49.670
83837W        W75761  46.691  34.711  50.577
83838W        W75762  20.243  39.186  53.348
83839W        W75763   6.785   6.269  50.598
83840W        W75764  44.696  11.269  50.614
83841W        W75765  37.721  42.203  53.324
83842W        W75766  40.721  26.232  53.332
83843W        W75767  38.700  45.722  51.069
83844W        W75768   2.251   2.795  53.783
83845W        W75769  20.221  21.762  49.690
83846W        W75770  30.739  26.719  49.684
83847W        W75771  11.250  20.232  51.040
83848W        W75772  39.715  25.241  51.533
83849W        W75773   4.271  35.217  51.050
83850W        W75774  30.706  45.225  51.509
83851W        W75775  36.724  19.757  49.709
83852W        W75776  48.191  42.209  50.618
83853W        W75777   5.275  24.752  50.133
83854W        W75778  41.719  40.209  50.600
83855W        W75779  46.212  42.227  52.445
83856W        W75780  10.268   4.282  52.434
83857W        W75781   4.266   7.272  50.144
83858W        W75782   6.263  20.222  51.972
83859W        W75783  24.216   2.286  50.147
83860W        W75784  21.239  24.252  51.954
83861W        W75785  33.214  46.723  52.408
83862W        W75786  33.698  33.220  50.165
83863W        W75787  15.760  40.202  51.980
83864W        W75788  22.247   0.792  53.340
83865W        W75789   7.284  39.218  53.790
83866W        W75790  41.213  24.759  51.966
83867W        W75791  46.184   3.281  50.591
83868W        W75792  41.715  18.262  50.137
83869W        W75793   3.256  35.212  52.903
83870W        W75794   8.269  43.200  50.166
83871W        W75795   6.279  22.224  50.166
83872W        W75796  12.271  11.744  52.417
83873W        W75797   4.781   7.253  50.590
83874W        W75798   9.275  37.223  51.527
83875W        W75799  10.275   2.264  50.131
83876W        W75800  33.243  19.250  51.951
83877W        W75801  41.214  47.196  51.056
83878W        W75802  46.201  42.724  49.666
83879W        W75803  18.238  41.687  53.817
83880W        W75804  38.710  32.724  51.983
83881W        W75805  15.269  37.724  52.892
83882W        W75806  47.714   7.274  49.679
83883W        W75807  28.233  43.680  51.967
83884W        W75808  26.208  18.763  53.350
83885W        W75809  20.253  48.209  52.438
83886W        W75810  24.247   9.774  49.691
83887W        W75811  32.246   7.785  51.991
83888W        W75812   6.286   3.777  53.350
83889W        W75813  21.718  16.747  50.585
83890W        W75814  20.256   9.240  49.699
83891W        W75815  16.745  34.199  50.578
83892W        W75816  13.773   2.790  53.335
83893W        W75817  45.181  34.210  50.146
83894W        W75818  27.736   5.267  51.069
83895W        W75819  12.280  39.209  50.584
83896W        W75820  27.705  33.218  51.510
83897W        W75821  19.736  33.714  51.965
83898W        W75822  42.682  22.758  53.800
83899W        W75823  26.747   2.761  53.345
83900W        W75824  18.234  40.706  51.077
83901W        W75825  26.256  13.743  50.596
83902W        W75826  43.696  32.715  49.699
83903W        W75827  41.217  25.708  49.698
83904W        W75828  48.180  22.227  53.801
83905W        W75829   0.271  32.206  50.153
83906W        W75830  39.695  14.246  51.530
83907W        W75831  28.250  27.746  53.798
83908W        W75832  44.186  44.189  51.985
83909W        W75833  41.208  12.741  53.345
83910W        W75834  28.730  48.181  53.783
83911W        W75835   5.752  20.743  53.796
83912W        W75836  19.242  41.217  50.141
83913W        W75837  28.732   7.281  50.592
83914W        W75838   0.272  42.695  51.983
83915W        W75839   9.250  34.742  51.041
83916W        W75840  31.711   6.774  49.704
83917W        W75841  44.191  26.234  53.335
83918W        W75842  42.680  16.750  53.324
83919W        W75843  12.741  39.720  50.152
83920W        W75844  15.751  33.735  51.066
83921W        W75845   7.755   4.256  51.512
83922W        W75846  23.728   6.240  50.126
83923W        W75847  20.258  11.252  52.896
83924W        W75848  41.187   3.282  52.898
83925W        W75849   0.786   2.786  53.338
83926W        W75850  19.257  33.242  52.416
83927W        W75851   9.284  20.746  51.078
83928W        W75852  33.708  15.739  52.900
83929W        W75853  24.225  12.745  51.076
83930W        W75854   5.249  28.212  50.138
83931W        W75855  13.756  48.214  50.582
83932W        W75856  28.226  11.246  51.512
83933W        W75857   9.770  10.242  53.787
83934W        W75858  30.730  16.254  51.503
83935W        W75859  32.740  12.240  52.443
83936W        W75860   5.291  42.230  53.325
83937W        W75861  35.208  43.222  51.989
83938W        W75862  26.715  33.219  51.955
83939W        W75863  18.735  35.208  51.979
83940W        W75864  31.739   1.768  53.787
83941W        W75865  12.231  14.733  51.494
83942W        W75866  47.186  46.721  52.416
83943W        W75867  14.761  21.251  52.904
83944W        W75868  12.250  29.717  51.973
83945W        W75869  16.736  28.219  53.792
83946W        W75870  10.282  39.218  49.694
83947W        W75871  19.727  38.697  52.876
83948W        W75872  15.247  19.241  50.605
83949W        W75873  12.777  23.728  53.344
83950W        W75874  22.263  15.273  51.990
83951W        W75875  12.249  45.177  49.676
83952W        W75876  27.249  28.748  51.063
83953W        W75877   1.767  36.192  50.160
83954W        W75878  41.207   3.274  50.166
83955W        W75879  26.751  18.269  50.136
83956W        W75880  39.718  17.256  50.122
83957W        W75881   3.765  26.741  52.443
83958W        W75882   2.263  33.217  53.334
83959W        W75883  41.185  10.749  50.585
83960W        W75884  11.248  17.767  50.600
83961W        W75885   8.254  45.704  51.956
83962W        W75886  35.197  41.731  51.949
83963W        W75887  26.239  22.734  53.788
83964W        W75888  22.730  13.752  51.948
83965W        W75889  18.719  12.231  51.054
83966W        W75890  35.701  25.755  50.133
83967W        W75891  33.736  24.248  50.593
83968W        W75892  17.226  36.235  51.072
83969W        W75893  27.226  25.734  51.067
83970W        W75894  22.240  36.718  52.437
83971W        W75895  22.717   3.264  50.611
83972W        W75896  29.212   1.776  52.403
83973W        W75897  27.215  30.200  52.441
83974W        W75898   7.787  27.716  53.776
83975W        W75899   9.254  45.193  51.516
83976W        W75900   9.740   4.752  53.782
83977W        W75901   7.760  44.177  49.698
83978W        W75902  23.257  19.733  52.899
83979W        W75903  24.233  45.706  52.889
83980W        W75904  32.242  43.686  52.439
83981W        W75905  18.243  20.747  53.800
83982W        W75906  33.729  25.738  53.782
83983W        W75907  37.707  30.227  51.987
83984W        W75908  33.718  35.227  52.447
83985W        W75909   6.251  40.190  51.514
83986W        W75910  46.717   2.785  52.875
83987W        W75911  14.741  24.717  53.777
83988W        W75912  44.694  30.202  50.122
83989W        W75913  31.714  22.225  52.867
83990W        W75914   3.291   5.769  51.064
83991W        W75915  27.739   7.739  53.345
83992W        W75916  29.706  43.205  52.887
83993W        W75917  30.714  45.198  51.055
83994W        W75918   7.743  32.216  50.601
83995W        W75919  27.208   3.281  52.888
83996W        W75920   8.765  44.177  49.699
83997W        W75921  45.685  15.268  52.413
83998W        W75922  25.225   4.768  53.361
83999W        W75923  45.225  43.716  49.693
84000W        W75924   4.770  23.735  51.047
84001W        W75925  38.724  20.720  53.786
84002W        W75926  32.225  34.719  52.875
84003W        W75927  42.200   3.290  53.353
84004W        W75928  43.714  24.240  51.509
84005W        W75929  24.745   2.270  50.622
84006W        W75930  34.708   5.271  51.533
84007W        W75931   3.272  45.675  50.586
84008W        W75932  26.740  34.729  51.533
84009W        W75933  44.202  33.204  49.668
84010W        W75934  11.248  29.234  52.412
84011W        W75935  37.234   5.249  50.616
84012W        W75936  33.231  31.730  51.035
84013W        W75937  44.693  22.245  53.798
84014W        W75938  42.716   9.777  51.984
84015W        W75939  10.256  17.264  52.901
84016W        W75940  43.682  46.217  51.974
84017W        W75941   1.749  19.745  52.445
84018W        W75942  27.752  25.737  51.076
84019W        W75943  35.724  11.274  49.689
84020W        W75944  19.744  10.283  52.884
84021W        W75945  36.226  39.723  49.673
84022W        W75946  34.217   6.780  53.815
84023W        W75947  47.686  22.235  50.603
84024W        W75948  23.761  41.214  50.615
84025W        W75949  45.218  47.185  52.872
84026W        W75950  14.763   7.758  51.946
84027W        W75951  29.213  25.708  51.976
84028W        W75952   7.244  35.205  49.677
84029W        W75953  37.732  39.222  52.448
84030W        W75954  27.706   8.251  53.353
84031W        W75955  12.732  22.745  49.692
84032W        W75956   6.761   9.779  49.673
84033W        W75957  47.219   6.773  50.612
84034W        W75958  12.743   4.283  51.530
84035W        W75959  12.243   0.772  49.668
84036W        W75960  32.218  22.253  51.978
84037W        W75961  18.764  43.228  51.980
84038W        W75962  28.717  34.215  53.337
84039W        W75963   1.284  31.735  50.152
84040W        W75964  21.251  27.713  53.791
84041W        W75965   4.752  12.754  51.991
84042W        W75966   2.768  38.696  52.409
84043W        W75967  33.717  36.222  52.900
84044W        W75968  43.725  10.737  51.045
84045W        W75969  24.726   9.769  53.802
84046W        W75970  35.709  30.215  52.445
84047W        W75971  46.192  24.729  53.777
84048W        W75972  23.236   1.793  53.330
84049W        W75973   2.286  40.719  50.166
84050W        W75974  45.724   2.269  49.685
84051W        W75975  25.721  18.232  49.685
84052W        W75976  16.747  16.758  49.673
84053W        W75977   9.237  26.222  51.502
84054W        W75978   8.253  37.237  52.427
84055W        W75979   5.285  46.213  50.151
84056W        W75980  42.220  17.231  53.342
84057W        W75981  16.734  24.721  53.323
84058W        W75982  21.718  27.736  51.049
84059W        W75983  14.752  24.754  51.981
84060W        W75984   3.255   6.754  52.420
84061W        W75985  47.683   9.274  51.991
84062W        W75986   0.267   7.769  51.062
84063W        W75987  19.749  35.207  50.588
84064W        W75988  36.738   1.762  53.358
84065W        W75989   5.291  11.238  53.812
84066W        W75990  29.745  15.230  52.404
84067W        W75991  23.243  14.730  50.136
84068W        W75992  40.701  33.738  52.432
84069W        W75993   7.784  20.224  51.976
84070W        W75994  14.754  38.691  52.406
84071W        W75995  43.211  13.276  51.982
84072W        W75996  35.738   7.272  52.871
84073W        W75997  37.698   4.789  53.783
84074W        W75998  44.224  29.238  50.134
84075W        W75999  12.737  39.714  53.342
84076W        W76000  13.254  44.723  52.407
84077W        W76001  37.223  25.747  52.445
84078W        W76002  48.172  40.206  51.034
84079W        W76003  17.262  40.209  51.052
84080W        W76004   6.247  41.721  50.590
84081W        W76005   8.282   0.255  53.786
84082W        W76006  44.183  39.189  50.126
84083W        W76007  16.271  19.254  53.333
84084W        W76008   0.279  29.717  53.810
84085W        W76009  23.221  26.729  51.977
84086W        W76010  10.751  10.741  53.814
84087W        W76011  36.719  28.246  51.053
84088W        W76012  33.218  34.234  50.152
84089W        W76013  17.232  16.767  51.971
84090W        W76014  46.706  28.746  53.348
84091W        W76015  32.733  32.737  53.810
84092W        W76016  16.236  13.233  51.501
84093W        W76017  32.711  28.729  51.079
84094W        W76018  26.234  43.192  51.076
84095W        W76019   5.254  28.745  50.152
84096W        W76020   6.749  10.249  52.881
84097W        W76021  24.726  10.265  53.330
84098W        W76022  35.735  18.245  53.350
84099W        W76023  11.241  46.179  53.331
84100W        W76024  22.228  36.198  51.983
84101W        W76025  32.246  42.727  51.978
84102W        W76026   5.785  23.739  50.613
84103W        W76027  10.745  39.216  51.961
84104W        W76028  45.701  31.233  49.694
84105W        W76029  28.215   7.266  52.889
84106W        W76030   2.766  21.762  51.524
84107W        W76031  10.740  38.233  50.149
84108W        W76032  39.190  16.245  51.531
84109W        W76033  22.735  19.724  50.154
84110W        W76034  17.768  29.727  51.497
84111W        W76035   5.786   5.785  51.069
84112W        W76036   0.789  38.732  51.072
84113W        W76037  17.269  37.706  52.866
84114W        W76038  28.214  22.236  53.328
84115W        W76039  30.233  24.721  53.810
84116W        W76040  40.708  32.219  52.422
84117W        W76041  32.704  25.727  50.596
84118W        W76042   5.750  34.707  51.036
84119W        W76043   8.246  37.213  50.591
84120W        W76044  44.189  27.723  50.163
84121W        W76045  41.219  13.245  51.529
84122W        W76046  19.753  44.710  51.967
84123W        W76047  31.219  40.198  50.615
84124W        W76048  23.237  10.772  50.142
84125W        W76049  20.256  17.223  51.041
84126W        W76050  11.246  27.216  51.530
84127W        W76051  45.711  47.196  50.121
84128W        W76052  17.257  34.698  50.124
84129W        W76053   1.775   7.248  51.508
84130W        W76054   5.278  45.190  51.957
84131W        W76055  18.745  28.236  52.431
84132W        W76056  21.252  15.749  51.518
84133W        W76057  41.206  25.754  53.353
84134W        W76058  13.743  20.726  53.796
84135W        W76059  12.752  13.745  51.059
84136W        W76060  14.734  16.748  53.336
84137W        W76061  20.264   4.283  49.707
84138W        W76062  22.261  22.252  51.064
84139W        W76063   8.251  12.278  53.789
84140W        W76064  33.223  42.726  49.666
84141W        W76065  20.232  13.241  53.793
84142W        W76066  16.724  27.239  51.980
84143W        W76067   7.787  42.701  51.509
84144W        W76068  28.238  10.279  49.670
84145W        W76069  43.216  36.209  51.490
84146W        W76070   6.766  43.696  52.880
84147W        W76071  22.228  22.230  52.903
84148W        W76072  15.231  11.735  49.686
84149W        W76073  15.739  33.733  52.416
84150W        W76074  30.248  19.226  51.074
84151W        W76075  26.240  14.760  51.039
84152W        W76076  43.710  32.711  53.810
84153W        W76077  25.239  20.733  52.869
84154W        W76078  14.259  17.256  51.956
84155W        W76079   8.743  20.228  51.517
84156W        W76080  22.242  15.763  51.978
84157W        W76081  48.213   0.260  51.528
84158W        W76082  40.708  42.225  49.692
84159W        W76083  23.758   9.769  52.889
84160W        W76084  44.200   7.285  52.427
84161W        W76085  15.240  39.205  50.592
84162W        W76086  38.190  13.270  49.703
84163W        W76087  21.247  46.693  52.438
84164W        W76088  43.704  22.237  51.982
84165W        W76089  20.247   8.250  53.359
84166W        W76090  40.713  18.723  53.334
84167W        W76091  44.694  43.192  51.063
84168W        W76092  29.232  14.255  53.776
84169W        W76093   7.739  29.706  51.533
84170W        W76094  31.219  29.717  51.971
84171W        W76095  46.721  38.224  49.704
84172W        W76096  47.174  15.747  51.055
84173W        W76097  20.235  33.206  49.698
84174W        W76098  18.258   8.239  50.152
84175W        W76099  13.230   2.752  52.415
84176W        W76100  16.743  24.225  53.786
84177W        W76101   4.254  48.211  51.504
84178W        W76102  27.217  27.241  52.869
84179W        W76103  10.748  23.219  52.905
84180W        W76104  13.252  31.726  51.062
84181W        W76105  44.685   1.783  52.891
84182W        W76106  37.704  32.232  52.886
84183W        W76107  44.198   5.748  52.863
84184W        W76108  13.265  10.253  49.682
84185W        W76109  39.231  35.691  52.861
84186W        W76110  31.200  45.194  51.524
84187W        W76111  46.179  44.697  51.060
84188W        W76112   6.766   2.286  52.417
84189W        W76113  25.213   5.782  51.494
84190W        W76114  32.699  15.234  53.805
84191W        W76115  33.229  35.240  51.521
84192W        W76116  13.273  24.758  49.670
84193W        W76117  34.210  16.748  52.409
84194W        W76118   4.290  11.264  51.506
84195W        W76119   9.269  24.237  52.413
84196W        W76120  45.212  16.731  53.351
84197W        W76121  46.722  46.693  53.332
84198W        W76122  23.713  11.252  49.693
84199W        W76123  26.229  42.205  51.044
84200W        W76124  22.257  10.273  50.127
84201W        W76125  41.209  48.194  51.981
84202W        W76126  46.693  17.264  51.052
84203W        W76127   6.783   6.261  51.529
84204W        W76128   2.250  21.745  53.788
84205W        W76129  44.708  44.224  49.697
84206W        W76130  26.254  40.220  53.786
84207W        W76131  32.227  23.755  51.056
84208W        W76132  42.215  34.740  51.527
84209W        W76133   0.771  22.726  53.797
84210W        W76134  46.699   2.248  53.809
84211W        W76135  21.753  11.261  52.410
84212W        W76136  12.279  23.258  53.798
84213W        W76137  33.734  28.211  50.144
84214W        W76138   8.269   2.762  53.790
84215W        W76139  39.690  43.703  51.526
84216W        W76140  35.741  16.238  53.806
84217W        W76141  44.199   2.751  53.360
84218W        W76142  37.720  33.703  53.359
84219W        W76143  47.676  15.751  49.706
84220W        W76144  19.729  40.695  53.336
84221W        W76145  46.208   9.244  51.514
84222W        W76146  32.703  28.233  52.443
84223W        W76147  46.216  29.728  51.518
84224W        W76148  38.703   9.780  51.051
84225W        W76149  20.243  31.737  52.865
84226W        W76150  16.265  28.719  50.153
84227W        W76151  43.223  44.677  52.890
84228W        W76152  45.689  44.214  50.599
84229W        W76153  35.708  22.751  53.325
84230W        W76154  16.264  42.211  50.130
84231W        W76155  16.771  29.214  51.959
84232W        W76156  13.256  32.222  51.514
84233W        W76157   3.780  14.751  51.039
84234W        W76158  41.702  48.219  50.577
84235W        W76159  42.214  34.209  51.523
84236W        W76160   4.253  13.237  51.957
84237W        W76161  36.734  13.241  50.614
84238W        W76162   2.756  44.218  53.323
84239W        W76163   1.278  12.262  50.617
84240W        W76164  26.727  18.719  53.318
84241W        W76165   7.741  34.231  53.775
84242W        W76166  44.715  23.237  53.798
84243W        W76167  29.251  29.701  51.523
84244W        W76168   3.250  32.206  51.967
84245W        W76169  11.268  36.239  51.532
84246W        W76170  21.740  31.239  51.520
84247W        W76171  40.197   6.771  53.786
84248W        W76172  10.247  37.691  50.606
84249W        W76173  27.745  16.260  51.954
84250W        W76174  45.202  23.726  53.793
84251W        W76175   0.765   8.262  49.672
84252W        W76176  47.688  30.739  50.593
84253W        W76177  27.226  19.756  52.410
84254W        W76178  17.732  34.216  50.139
84255W        W76179  47.717  19.758  50.584
84256W        W76180  46.697   9.751  50.587
84257W        W76181  40.191   8.247  53.781
84258W        W76182  23.737   5.765  51.057
84259W        W76183  30.225   5.276  52.867
84260W        W76184  19.240  16.237  51.053
84261W        W76185  41.221  48.184  52.903
84262W        W76186  21.218  36.229  51.513
84263W        W76187  27.244  42.183  52.879
84264W        W76188  42.702  37.728  49.703
84265W        W76189  47.721   3.280  52.904
84266W        W76190  26.245   7.763  52.427
84267W        W76191  21.252  27.252  51.068
84268W        W76192   1.290   7.251  50.586
84269W        W76193  44.686  26.747  52.433
84270W        W76194  10.759  34.206  53.328
84271W        W76195  45.684   0.783  50.599
84272W        W76196  22.231  42.681  49.679
84273W        W76197  34.741  36.733  53.814
84274W        W76198  12.747  15.747  50.581
84275W        W76199  37.713   0.798  53.791
84276W        W76200  47.192  23.729  53.788
84277W        W76201  13.738  28.714  53.324
84278W        W76202   9.748  37.721  51.525
84279W        W76203  28.750  20.233  51.526
84280W        W76204  11.242  44.698  52.892
84281W        W76205  13.750  24.739  51.518
84282W        W76206  37.714  10.777  51.038
84283W        W76207  36.700  33.204  53.794
84284W        W76208  47.221  32.705  49.677
84285W        W76209  28.738   7.277  49.697
84286W        W76210  14.769  29.245  51.989
84287W        W76211  25.756  37.213  51.065
84288W        W76212  36.197  35.211  49.687
84289W        W76213  17.238   2.768  53.323
84290W        W76214  24.256  31.725  52.882
84291W        W76215  31.237  38.725  50.602
84292W        W76216  24.733   4.768  50.606
84293W        W76217  21.724  33.228  49.680
84294W        W76218   6.782  30.711  53.343
84295W        W76219  30.232  18.252  52.880
84296W        W76220  40.213   8.750  51.493
84297W        W76221  41.696   8.281  51.492
84298W        W76222  47.688  30.722  51.969
84299W        W76223  20.229  42.690  51.989
84300W        W76224   6.255   1.781  51.954
84301W        W76225  47.202   2.252  50.140
84302W        W76226  13.757  39.705  49.678
84303W        W76227  20.235   0.782  52.874
84304W        W76228  20.243  20.722  52.429
84305W        W76229  44.217  41.696  51.493
84306W        W76230  26.729  46.695  52.412
84307W        W76231  19.248  21.233  50.140
84308W        W76232  45.693  33.197  53.811
84309W        W76233  20.256  25.217  51.060
84310W        W76234   3.275   9.738  52.430
84311W        W76235  13.237  29.250  50.143
84312W        W76236  17.727  34.715  49.673
84313W        W76237  23.716  17.249  53.327
84314W        W76238  17.240  10.766  51.073
84315W        W76239   1.748  10.733  52.446
84316W        W76240  12.273   7.270  51.062
84317W        W76241  24.723  13.776  49.687
84318W        W76242  20.265  38.693  52.408
84319W        W76243  44.723  31.206  53.355
84320W        W76244   9.276  44.191  51.496
84321W        W76245  13.775  37.710  51.490
84322W        W76246  32.723  37.718  53.811
84323W        W76247  37.202  34.215  50.618
84324W        W76248  15.764  22.749  51.967
84325W        W76249   5.251   1.269  53.806
84326W        W76250  19.248   5.760  53.793
84327W        W76251  30.209  31.735  50.584
84328W        W76252  19.253  25.730  53.811
84329W        W76253  47.704   3.759  50.619
84330W        W76254  27.224  22.755  51.070
84331W        W76255   3.781  19.237  51.518
84332W        W76256  48.186  34.208  50.582
84333W        W76257  41.684  16.727  51.041
84334W        W76258   9.774  24.735  50.596
84335W        W76259  25.708  41.707  53.340
84336W        W76260  13.747  29.209  50.585
84337W        W76261  28.250  18.225  53.796
84338W        W76262   5.746   3.790  53.347
84339W        W76263  37.200   4.275  53.327
84340W        W76264  38.709  19.728  53.333
84341W        W76265  20.726  15.761  51.039
84342W        W76266  14.272  31.738  52.405
84343W        W76267   9.272  46.698  50.621
84344W        W76268  44.680  21.721  49.701
84345W        W76269   4.250  47.688  53.781
84346W        W76270  11.267  40.723  50.137
84347W        W76271  18.745  25.257  49.696
84348W        W76272  34.693   4.274  49.666
84349W        W76273  34.696  12.737  51.060
84350W        W76274  32.208  13.276  52.904
84351W        W76275  18.266  30.730  51.036
84352W        W76276   1.789  14.263  50.612
84353W        W76277  39.226  28.737  51.952
84354W        W76278  32.244   3.794  53.337
84355W        W76279  33.711  13.229  50.161
84356W        W76280  27.206  18.746  53.357
84357W        W76281  37.723  40.196  51.523
84358W        W76282   8.243  22.737  52.448
84359W        W76283  48.180   2.252  51.979
84360W        W76284  45.691  46.189  53.339
84361W        W76285   2.766  30.227  51.058
84362W        W76286  13.758  42.712  50.166
84363W        W76287   8.784  34.227  51.968
84364W        W76288  10.255   3.275  51.036
84365W        W76289  11.751  48.184  52.410
84366W        W76290   3.772   6.750  50.601
84367W        W76291  15.754  32.708  51.501
84368W        W76292  26.725  15.765  53.324
84369W        W76293  12.235  28.225  50.141
84370W        W76294  21.723   5.771  50.164
84371W        W76295  47.190   4.764  51.508
84372W        W76296  45.714  23.753  52.430
84373W        W76297  47.182  24.737  50.137
84374W        W76298  13.274   8.748  53.797
84375W        W76299  27.227  15.764  50.591
84376W        W76300  28.707  19.739  52.439
84377W        W76301  45.195   1.786  50.135
84378W        W76302  26.733   9.764  49.703
84379W        W76303  46.680   2.294  52.436
84380W        W76304  28.229  12.244  53.330
84381W        W76305  40.226  30.727  53.784
84382W        W76306  11.247  20.240  49.696
84383W        W76307  21.756  41.207  50.149
84384W        W76308  11.238  29.711  50.147
84385W        W76309  39.197  38.220  51.508
84386W        W76310  26.752  14.259  51.989
84387W        W76311  34.205  44.192  52.435
84388W        W76312  17.728  12.247  50.610
84389W        W76313   9.757  16.266  52.411
84390W        W76314   2.259  20.763  52.879
84391W        W76315  36.194  42.726  50.147
84392W        W76316  31.701   1.777  51.521
84393W        W76317  20.219  16.752  53.790
84394W        W76318   6.755  23.230  50.589
84395W        W76319   2.264   8.756  51.956
84396W        W76320  26.231  39.235  53.329
84397W        W76321   3.283  11.257  52.433
84398W        W76322  16.229  12.779  52.895
84399W        W76323  37.721  16.263  51.985
84400W        W76324  22.738  30.205  51.035
84401W        W76325  43.189  47.705  50.601
84402W        W76326  25.733  24.742  50.126
84403W        W76327   5.751  19.246  52.443
84404W        W76328  12.256  44.695  50.124
84405W        W76329  28.231  46.219  51.503
84406W        W76330  31.746  41.229  49.706
84407W        W76331   2.773  21.717  52.420
84408W        W76332  15.771  11.770  53.348
84409W        W76333  27.229   7.277  50.123
84410W        W76334  26.740  45.698  51.533
84411W        W76335  31.210   1.259  53.339
84412W        W76336  25.225  14.741  51.507
84413W        W76337  21.739  27.732  52.860
84414W        W76338   6.743  22.721  52.429
84415W        W76339  42.187   9.246  53.316
84416W        W76340  26.235  33.722  52.406
84417W        W76341  47.714  44.705  53.319
84418W        W76342   0.749  30.216  53.320
84419W        W76343  24.757  41.715  51.071
84420W        W76344  31.241  19.268  51.948
84421W        W76345  31.209  21.718  50.153
84422W        W76346   9.745  46.676  50.160
84423W        W76347  35.739   0.769  51.971
84424W        W76348  47.211  16.229  50.608
84425W        W76349  30.248  21.235  52.414
84426W        W76350  43.202   2.792  53.810
84427W        W76351  31.201  33.242  53.332
84428W        W76352   3.778  32.198  50.616
84429W        W76353  25.226   2.285  50.598
84430W        W76354  21.235   2.256  52.439
84431W        W76355  16.736  21.760  51.037
84432W        W76356  40.714  34.211  50.589
84433W        W76357   5.266   2.265  53.814
84434W        W76358  47.172   6.773  50.162
84435W        W76359  43.703   2.766  49.700
84436W        W76360   7.778  17.265  49.678
84437W        W76361  10.240  40.227  50.596
84438W        W76362  45.705  28.722  51.493
84439W        W76363  25.712  38.722  52.897
84440W        W76364  22.716  31.216  53.350
84441W        W76365  32.743  45.212  50.590
84442W        W76366  39.199  31.227  49.702
84443W        W76367  16.257  15.233  50.589
84444W        W76368  33.742  16.257  50.135
84445W        W76369   6.252  10.241  52.888
84446W        W76370  24.729   4.247  49.687
84447W        W76371  18.737  18.749  50.591
84448W        W76372  35.229  28.742  53.316
84449W        W76373  11.752   0.783  53.803
84450W        W76374  36.713  41.701  50.584
84451W        W76375   3.776  42.718  51.509
84452W        W76376  35.725  20.755  51.534
84453W        W76377   1.259  20.234  49.676
84454W        W76378   0.297  24.749  52.888
84455W        W76379   6.250  37.733  53.785
84456W        W76380  34.719  32.736  52.447
84457W        W76381  24.226  36.730  53.329
84458W        W76382  37.707   0.270  51.528
84459W        W76383  20.218  34.720  52.892
84460W        W76384  25.256  45.705  53.772
84461W        W76385  45.182  31.734  53.348
84462W        W76386  19.241  26.715  53.361
84463W        W76387  34.205  34.225  51.035
84464W        W76388  31.715  40.725  51.530
84465W        W76389  37.725  38.209  51.515
84466W        W76390  31.711   3.255  50.139
84467W        W76391  31.200  27.218  51.977
84468W        W76392  17.737  40.222  51.981
84469W        W76393   8.272  10.738  52.438
84470W        W76394  22.737   3.776  53.361
84471W        W76395  28.750  16.732  53.345
84472W        W76396  33.218  10.735  51.498
84473W        W76397  24.713  46.201  53.336
84474W        W76398   0.261   3.762  52.893
84475W        W76399  15.753  32.744  52.439
84476W        W76400  20.717  21.725  52.403
84477W        W76401  33.730  32.245  53.348
84478W        W76402   4.271  45.218  51.529
84479W        W76403  42.208  24.221  52.864
84480W        W76404  46.705  31.230  50.152
84481W        W76405  16.234  47.721  50.598
84482W        W76406  17.753  31.211  53.323
84483W        W76407  23.754  11.764  51.076
84484W        W76408  30.743   8.254  52.877
84485W        W76409  34.696  25.715  51.952
84486W        W76410  28.220  35.706  50.156
84487W        W76411  32.726  18.757  51.962
84488W        W76412  30.737   3.767  52.892
84489W        W76413  34.208  30.232  50.600
84490W        W76414  37.732  47.179  51.957
84491W        W76415  10.244  23.728  51.961
84492W        W76416  42.182  42.713  52.438
84493W        W76417  22.238  23.731  52.890
84494W        W76418  46.219  32.227  53.328
84495W        W76419   5.272  26.736  51.968
84496W        W76420  23.739  30.738  50.619
84497W        W76421  10.776  43.220  53.813
84498W        W76422  14.737  28.247  50.147
84499W        W76423  36.739  26.233  52.883
84500W        W76424   8.277  42.721  52.873
84501W        W76425  10.251  18.719  51.515
84502W        W76426  10.248  20.754  52.870
84503W        W76427  13.257  22.231  53.774
84504W        W76428   4.757  13.746  51.037
84505W        W76429  33.728   3.761  52.439
84506W        W76430  15.768  22.726  52.408
84507W        W76431   0.270  40.731  51.503
84508W        W76432  21.216  17.743  53.780
84509W        W76433  28.709  45.187  51.057
84510W        W76434   2.249  45.203  51.508
84511W        W76435  39.705  18.228  52.418
84512W        W76436   3.293  35.222  49.684
84513W        W76437   0.292  27.240  51.528
84514W        W76438  44.224  29.229  51.968
84515W        W76439  37.212  18.252  52.873
84516W        W76440  29.708  39.201  52.428
84517W        W76441  13.770  30.737  52.883
84518W        W76442  12.749  22.745  51.502
84519W        W76443   5.286  18.246  50.614
84520W        W76444   5.776  18.720  51.510
84521W        W76445  39.716   5.246  50.592
84522W        W76446  38.188  41.681  50.600
84523W        W76447  34.217  28.735  51.501
84524W        W76448  27.753  15.766  50.580
84525W        W76449  47.704  39.192  51.053
84526W        W76450  36.210  11.766  51.050
84527W        W76451  43.679  36.736  51.987
84528W        W76452  45.190  18.723  50.155
84529W        W76453  17.746  42.227  51.077
84530W        W76454   5.753  35.737  51.073
84531W        W76455  32.717  33.705  53.323
84532W        W76456  41.704  23.715  49.709
84533W        W76457  33.712   9.247  52.412
84534W        W76458  25.241  13.738  53.782
84535W        W76459  41.728   4.772  51.076
84536W        W76460  45.207  18.250  53.345
84537W        W76461  19.231  36.707  53.805
84538W        W76462  32.244  34.225  49.703
84539W        W76463  20.241  34.233  52.883
84540W        W76464  39.228  27.737  51.062
84541W        W76465  35.695   4.270  53.328
84542W        W76466  19.225  30.217  52.877
84543W        W76467   4.746   2.274  51.990
84544W        W76468  12.767   0.791  53.338
84545W        W76469   1.762  42.198  50.592
84546W        W76470  18.250  21.715  53.348
84547W        W76471   1.260  20.748  52.432
84548W        W76472  18.763  47.193  53.788
84549W        W76473  10.269  45.682  49.693
84550W        W76474   7.258  26.214  52.901
84551W        W76475   1.284  46.681  51.975
84552W        W76476   6.787  17.230  53.813
84553W        W76477   8.737   2.290  53.776
84554W        W76478   9.770  19.224  49.691
84555W        W76479  23.711  46.187  50.155
84556W        W76480  29.251  26.226  50.613
84557W        W76481  19.753  40.691  51.058
84558W        W76482  11.731   7.263  51.970
84559W        W76483  19.734  10.271  49.694
84560W        W76484  48.197  15.736  53.322
84561W        W76485   6.756  30.225  52.869
84562W        W76486  27.236  21.715  49.706
84563W        W76487  36.707   6.788  51.511
84564W        W76488  22.242  15.758  51.511
84565W        W76489  42.698  34.221  53.318
84566W        W76490  37.196   9.755  50.166
84567W        W76491  42.224   8.767  51.981
84568W        W76492  47.681  33.718  50.135
84569W        W76493   4.268  40.695  51.960
84570W        W76494   8.750   4.776  51.972
84571W        W76495   0.771  14.230  53.358
84572W        W76496  26.742  37.200  50.593
84573W        W76497  33.208  22.242  52.863
84574W        W76498  47.714   6.270  52.406
84575W        W76499  22.254   6.740  53.332
84576W        W76500   0.271  17.230  49.691
84577W        W76501  12.278   9.768  50.581
84578W        W76502  18.248   8.759  53.348
84579W        W76503  30.705  13.238  53.773
84580W        W76504  40.219  19.234  51.076
84581W        W76505  30.718  17.238  52.871
84582W        W76506  45.180  20.737  50.598
84583W        W76507  42.697  37.196  52.903
84584W        W76508  17.726  45.189  51.530
84585W        W76509  28.721  14.231  53.339
84586W        W76510  16.230  27.242  50.599
84587W        W76511  37.193   9.236  49.710
84588W        W76512  39.699  10.780  51.946
84589W        W76513   4.278  14.274  51.078
84590W        W76514  19.754   8.237  51.531
84591W        W76515   3.262  47.715  53.808
84592W        W76516   2.289  20.243  52.893
84593W        W76517  16.741   8.250  49.680
84594W        W76518  28.718  17.247  51.970
84595W        W76519  38.720  24.211  49.671
84596W        W76520   9.749  13.746  52.860
84597W        W76521   8.774  16.752  51.965
84598W        W76522  11.764  38.711  51.034
84599W        W76523  43.726  41.700  53.787
84600W        W76524   5.763  24.231  52.889
84601W        W76525  30.702   0.293  52.894
84602W        W76526  44.192  22.749  49.699
84603W        W76527  17.770  22.716  49.691
84604W        W76528   5.751  17.233  52.411
84605W        W76529  21.235   6.767  51.524
84606W        W76530   0.250  30.723  51.984
84607W        W76531  41.205  35.206  50.139
84608W        W76532  21.757  15.225  53.345
84609W        W76533   6.783  25.215  53.350
84610W        W76534  12.244  34.196  53.778
84611W        W76535  45.218  44.707  51.515
84612W        W76536   0.266   3.289  50.141
84613W        W76537   7.257   6.271  51.053
84614W        W76538  39.225   2.765  50.151
84615W        W76539  42.226  42.216  50.157
84616W        W76540  46.701   1.789  52.429
84617W        W76541   4.764  24.718  51.533
84618W        W76542  23.225  27.734  49.694
84619W        W76543  24.725  23.743  53.355
84620W        W76544  34.228  19.763  53.773
84621W        W76545   8.254  39.196  53.789
84622W        W76546  32.234   4.787  50.139
84623W        W76547  43.208   5.266  49.670
84624W        W76548  46.191  46.206  52.863
84625W        W76549  14.273  15.269  51.950
84626W        W76550   1.268  14.772  50.621
84627W        W76551  19.761  33.235  51.978
84628W        W76552  46.696   1.768  51.946
84629W        W76553  37.226  42.205  49.697
84630W        W76554  13.232   8.743  49.705
84631W        W76555  23.735   1.762  51.972
84632W        W76556  15.274  42.701  51.964
84633W        W76557  45.704   1.754  50.128
84634W        W76558  14.263  34.729  52.427
84635W        W76559  39.710   2.270  51.977
84636W        W76560  31.199  26.706  49.686
84637W        W76561  18.269  25.740  51.953
84638W        W76562  42.205  12.249  50.585
84639W        W76563  12.744  16.233  52.889
84640W        W76564  47.672  25.737  49.671
84641W        W76565  27.252   1.270  52.902
84642W        W76566  46.721  26.731  49.669
84643W        W76567  42.213  11.245  51.513
84644W        W76568  17.737  23.246  50.160
84645W        W76569  36.701   0.789  53.778
84646W        W76570  32.733  15.235  50.129
84647W        W76571   5.754  27.750  52.445
84648W        W76572  20.235  40.686  51.078
84649W        W76573  29.242  20.762  51.971
84650W        W76574   8.254  42.711  51.960
84651W        W76575   6.750  31.737  51.952
84652W        W76576  39.212  10.271  50.128
84653W        W76577  23.739  41.719  52.893
84654W        W76578   5.773   4.770  49.700
84655W        W76579   2.787  29.204  53.323
84656W        W76580   4.261  26.255  51.962
84657W        W76581  31.722   3.292  53.810
84658W        W76582  35.232  18.246  50.600
84659W        W76583  39.689  46.717  52.438
84660W        W76584  17.224  40.209  50.610
84661W        W76585   9.756   0.760  53.796
84662W        W76586  21.739  30.716  51.968
84663W        W76587  23.730  35.720  52.409
84664W        W76588   4.745   4.780  53.804
84665W        W76589  33.241  40.711  49.684
84666W        W76590  41.214  41.693  52.876
84667W        W76591  12.245  42.188  51.075
84668W        W76592  31.734  22.762  51.991
84669W        W76593  32.709  40.723  53.806
84670W        W76594  38.729  47.179  50.124
84671W        W76595  28.226  32.742  51.527
84672W        W76596  10.779  19.750  52.418
84673W        W76597  27.737  34.217  51.044
84674W        W76598  32.708  19.741  50.139
84675W        W76599  48.213  45.698  50.147
84676W        W76600  26.721  17.730  51.529
84677W        W76601  40.208  29.720  52.423
84678W        W76602  45.184  25.751  50.166
84679W        W76603  17.268  16.272  51.041
84680W        W76604  38.194  19.246  53.348
84681W        W76605  28.748  37.238  53.319
84682W        W76606   6.261   0.285  49.678
84683W        W76607  34.205   9.752  52.896
84684W        W76608  48.203   3.772  53.788
84685W        W76609   2.267   5.786  53.773
84686W        W76610   7.747  40.191  51.073
84687W        W76611  29.248  43.202  51.952
84688W        W76612  10.280  45.692  52.416
84689W        W76613  34.243  17.752  53.351
84690W        W76614  39.727   9.283  51.991
84691W        W76615  40.723  36.723  53.792
84692W        W76616   8.246  36.709  52.864
84693W        W76617  11.746   1.764  53.815
84694W        W76618  32.222  36.232  49.689
84695W        W76619  42.719  40.700  52.866
84696W        W76620   0.272   4.751  53.816
84697W        W76621   4.792   5.762  49.709
84698W        W76622  35.220  13.738  50.601
84699W        W76623   9.262  48.207  52.894
84700W        W76624  42.212   6.741  50.160
84701W        W76625  44.681  15.265  52.422
84702W        W76626  27.746  38.708  50.137
84703W        W76627  36.192  11.269  51.509
84704W        W76628  12.266  44.182  50.609
84705W        W76629  33.744   6.764  49.671
84706W        W76630  38.227  16.230  51.525
84707W        W76631  15.737  27.738  49.697
84708W        W76632  34.239  34.725  51.980
84709W        W76633  45.721  23.733  50.122
84710W        W76634  30.707  11.246  53.331
84711W        W76635  39.196  34.233  51.070
84712W        W76636  17.733  35.221  50.582
84713W        W76637  43.716  25.745  51.072
84714W        W76638   4.759  30.733  53.347
84715W        W76639  40.728  31.715  52.446
84716W        W76640  17.264  21.246  52.407
84717W        W76641  23.757  11.244  53.776
84718W        W76642  39.718  19.762  50.604
84719W        W76643  41.710  35.703  53.810
84720W        W76644  46.675  33.710  52.422
84721W        W76645   1.753  40.689  51.518
84722W        W76646  34.735  12.236  53.779
84723W        W76647  14.749   5.790  49.667
84724W        W76648  48.195  34.727  52.905
84725W        W76649  26.239   7.749  50.613
84726W        W76650  46.196  20.748  51.524
84727W        W76651  30.700  11.764  50.596
84728W        W76652   0.263  24.738  52.428
84729W        W76653  16.770  39.206  53.804
84730W        W76654  12.279  40.196  50.602
84731W        W76655  26.727  29.234  53.345
84732W        W76656  17.251  18.232  50.603
84733W        W76657  15.234   3.270  53.335
84734W        W76658  30.230   1.280  51.963
84735W        W76659  14.246  43.188  50.133
84736W        W76660  40.726  36.226  51.962
84737W        W76661  16.271  36.213  51.982
84738W        W76662  44.698  37.233  53.780
84739W        W76663  24.242  23.740  49.680
84740W        W76664  36.730  27.236  50.588
84741W        W76665  30.247  12.267  49.667
84742W        W76666  47.677  35.709  53.780
84743W        W76667   9.255  12.760  49.668
84744W        W76668  19.268  10.736  52.886
84745W        W76669  12.242   6.775  51.506
84746W        W76670  16.751  40.708  52.877
84747W        W76671  39.228  41.223  52.408
84748W        W76672  44.211  13.762  53.790
84749W        W76673  30.710  40.184  53.317
84750W        W76674  28.713  44.723  51.497
84751W        W76675   2.750  42.195  52.448
84752W        W76676  40.718  26.745  53.318
84753W        W76677  18.268   1.772  50.159
84754W        W76678  25.737  35.694  49.677
84755W        W76679  26.214   2.278  50.611
84756W        W76680  39.698  18.224  49.683
84757W        W76681  15.251  44.190  50.166
84758W        W76682  44.713  10.762  51.520
84759W        W76683   3.292   8.273  49.699
84760W        W76684  45.682  20.757  53.357
84761W        W76685  22.223   3.784  52.427
84762W        W76686  33.697   8.249  51.499
84763W        W76687  30.216  46.213  51.060
84764W        W76688   5.270  44.178  53.788
84765W        W76689  25.214  40.711  51.071
84766W        W76690  20.229  17.730  53.789
84767W        W76691  30.235  44.197  53.795
84768W        W76692  42.722  39.221  51.062
84769W        W76693  22.733  41.701  50.622
84770W        W76694  39.219  38.195  50.135
84771W        W76695  42.223   8.270  50.164
84772W        W76696  47.717   9.272  53.351
84773W        W76697  48.196   0.291  49.703
84774W        W76698   1.263  25.219  50.145
84775W        W76699  34.237  39.191  49.705
84776W        W76700  27.705  34.733  52.868
84777W        W76701  16.766  29.729  52.446
84778W        W76702  27.232   2.284  52.436
84779W        W76703  16.266  47.197  51.948
84780W        W76704  17.233  33.698  49.691
84781W        W76705   1.782   2.279  50.127
84782W        W76706  13.263  26.755  52.892
84783W        W76707  40.728  32.203  53.329
84784W        W76708  40.730   0.750  51.983
84785W        W76709  28.717  42.190  52.883
84786W        W76710  28.230  35.221  50.126
84787W        W76711  17.747  12.778  52.884
84788W        W76712  22.715  12.775  50.162
84789W        W76713   0.791   4.770  51.066
84790W        W76714  10.281  37.710  50.163
84791W        W76715  28.718  21.238  49.694
84792W        W76716   4.758  38.688  51.977
84793W        W76717   2.280  20.263  52.421
84794W        W76718   2.251  37.233  52.892
84795W        W76719   6.743  45.682  49.695
84796W        W76720  40.208  23.226  53.778
84797W        W76721   2.262  16.726  51.522
84798W        W76722  35.729  21.725  52.894
84799W        W76723  19.248  32.719  52.412
84800W        W76724  36.738  27.716  52.438
84801W        W76725  22.719  40.233  51.049
84802W        W76726  13.263  24.752  51.052
84803W        W76727  15.274  37.201  51.982
84804W        W76728  43.687   5.281  49.675
84805W        W76729  23.216  36.736  52.884
84806W        W76730  37.197  30.227  53.336
84807W        W76731  19.726   4.771  51.051
84808W        W76732   8.240  30.244  51.990
84809W        W76733  17.722  37.701  50.151
84810W        W76734  17.271   9.243  50.142
84811W        W76735  26.210  26.716  51.497
84812W        W76736  16.738   8.246  51.044
84813W        W76737   1.759  23.730  50.147
84814W        W76738  37.720  29.719  50.151
84815W        W76739   7.283  26.749  53.780
84816W        W76740  18.760   6.271  52.871
84817W        W76741   8.253  37.699  50.125
84818W        W76742  27.743  15.246  50.607
84819W        W76743  22.724   0.250  50.163
84820W        W76744   8.767  29.235  50.597
84821W        W76745   1.283  22.244  50.580
84822W        W76746  19.731  39.200  51.979
84823W        W76747  23.239   6.769  51.989
84824W        W76748  30.244  12.761  53.810
84825W        W76749   2.253  28.745  51.496
84826W        W76750   4.270  34.210  50.582
84827W        W76751  42.711  47.221  51.966
84828W        W76752  39.733  39.227  51.510
84829W        W76753  12.765  12.742  53.793
84830W        W76754  13.239  45.188  50.591
84831W        W76755   7.753  22.719  53.778
84832W        W76756  21.737  33.229  51.046
84833W        W76757   2.264  46.175  53.339
84834W        W76758   7.752  31.709  50.148
84835W        W76759   0.261  44.185  49.676
84836W        W76760  41.227  19.723  49.687
84837W        W76761  27.207  20.219  53.780
84838W        W76762   9.784   7.261  52.435
84839W        W76763  23.754  19.728  52.876
84840W        W76764  28.231  33.214  49.667
84841W        W76765  27.246   0.266  51.057
84842W        W76766  33.728  47.706  53.807
84843W        W76767   4.753  33.228  50.602
84844W        W76768  37.734  12.744  53.814
84845W        W76769   6.255  32.722  52.406
84846W        W76770  12.266  17.757  51.960
84847W        W76771  23.746  13.249  53.328
84848W        W76772  28.235  43.685  50.148
84849W        W76773   0.777  28.712  49.697
84850W        W76774  30.244   1.782  49.686
84851W        W76775   5.781   1.765  52.444
84852W        W76776   2.258  47.213  52.883
84853W        W76777  15.236  43.681  49.703
84854W        W76778  31.706  14.257  53.346
84855W        W76779  43.210   7.765  53.316
84856W        W76780  17.747  35.732  52.437
84857W        W76781  31.736  16.269  51.518
84858W        W76782  40.718  44.697  52.879
84859W        W76783  25.247  43.223  53.333
84860W        W76784  28.707  16.235  53.356
84861W        W76785  23.224  28.236  51.974
84862W        W76786  47.719  34.728  53.790
84863W        W76787   6.760  29.739  50.619
84864W        W76788  35.227   3.260  52.422
84865W        W76789  40.719  35.218  51.535
84866W        W76790   8.758  17.242  51.987
84867W        W76791  28.734  44.725  51.035
84868W        W76792  23.224  18.756  52.864
84869W        W76793  45.185   9.274  50.588
84870W        W76794  42.680  17.727  49.679
84871W        W76795  12.264  29.732  52.889
84872W        W76796  14.275  31.732  51.984
84873W        W76797  43.712  27.241  52.863
84874W        W76798  24.248   6.774  53.361
84875W        W76799  42.212   5.751  50.604
84876W        W76800  46.221  12.744  50.594
84877W        W76801   4.292   2.787  53.360
84878W        W76802   6.270  31.218  52.439
84879W        W76803  39.200   5.786  51.949
84880W        W76804  19.230   2.772  50.130
84881W        W76805  37.731  42.208  52.407
84882W        W76806  34.228  23.224  52.879
84883W        W76807  31.240  16.241  50.614
84884W        W76808  29.239  47.688  53.340
84885W        W76809  26.747  34.742  51.982
84886W        W76810  12.770   1.296  50.598
84887W        W76811   3.255   8.262  50.141
84888W        W76812   7.275  10.268  51.492
84889W        W76813  42.697  41.193  50.125
84890W        W76814  46.199  36.710  51.055
84891W        W76815   4.273  36.213  50.605
84892W        W76816  19.729  45.212  51.056
84893W        W76817  37.208  40.194  50.133
84894W        W76818  10.738  20.743  52.880
84895W        W76819  30.730  42.222  51.034
84896W        W76820  45.195  17.728  52.885
84897W        W76821   0.291  30.210  50.148
84898W        W76822  10.757  14.750  50.127
84899W        W76823  38.209  45.679  50.132
84900W        W76824  40.207  10.251  53.783
84901W        W76825  43.681  10.269  53.788
84902W        W76826   3.269  19.227  53.318
84903W        W76827   6.780  29.748  53.817
84904W        W76828  41.715  47.186  52.872
84905W        W76829   7.750  47.699  50.152
84906W        W76830  37.722  47.710  51.960
84907W        W76831  17.268  46.701  49.675
84908W        W76832  43.696  31.203  49.672
84909W        W76833  44.679  14.274  50.126
84910W        W76834   3.760   2.765  53.333
84911W        W76835  22.757  36.210  52.447
84912W        W76836  27.253   7.744  49.676
84913W        W76837  19.727  32.738  50.136
84914W        W76838  47.698  12.235  51.051
84915W        W76839  23.738   3.267  50.129
84916W        W76840  22.214  24.211  53.794
84917W        W76841  33.203   6.787  52.876
84918W        W76842  15.734  28.205  53.787
84919W        W76843   9.262   8.253  51.062
84920W        W76844  45.201   1.753  50.604
84921W        W76845  28.720  13.745  51.969
84922W        W76846  13.756  41.218  52.888
84923W        W76847  12.767  29.227  51.948
84924W        W76848  14.249   6.267  51.055
84925W        W76849  15.748  46.175  51.527
84926W        W76850  28.720  16.754  53.809
84927W        W76851   9.244  35.201  51.044
84928W        W76852   7.261  27.236  52.889
84929W        W76853  26.748   5.280  53.342
84930W        W76854  42.705   4.782  49.700
84931W        W76855  13.737  16.269  52.423
84932W        W76856   8.245  28.246  51.078
84933W        W76857  21.755   2.265  53.349
84934W        W76858  15.249  39.695  53.781
84935W        W76859  43.723   2.261  51.511
84936W        W76860  47.706  22.236  51.036
84937W        W76861  30.714   4.790  51.034
84938W        W76862  18.750  44.709  50.614
84939W        W76863  29.723  21.263  53.811
84940W        W76864  36.732  25.242  50.603
84941W        W76865  19.754  36.226  49.704
84942W        W76866  21.242  18.762  53.334
84943W        W76867  35.225   5.283  52.904
84944W        W76868  29.717  16.750  50.148
84945W        W76869   9.736  10.745  50.130
84946W        W76870  20.761  20.256  50.605
84947W        W76871  34.700  48.171  50.606
84948W        W76872   6.751   3.267  49.670
84949W        W76873  22.758  11.737  53.813
84950W        W76874  21.763   4.743  49.686
84951W        W76875   0.786  14.754  52.426
84952W        W76876   7.245  42.208  52.403
84953W        W76877  31.233   2.275  53.329
84954W        W76878   0.281  38.723  52.867
84955W        W76879  16.764  31.202  53.344
84956W        W76880  43.223   0.758  51.497
84957W        W76881  25.233  27.210  51.074
84958W        W76882  10.250  35.198  49.689
84959W        W76883  21.253   7.245  51.965
84960W        W76884  17.725  19.263  50.143
84961W        W76885  23.233  22.743  51.964
84962W        W76886  17.236  26.735  53.347
84963W        W76887   6.243   8.777  52.448
84964W        W76888   6.759  41.208  53.329
84965W        W76889  16.761  28.236  50.150
84966W        W76890  38.234  19.268  51.491
84967W        W76891  16.236  38.734  49.671
84968W        W76892  21.218  29.737  51.991
84969W        W76893  45.224   4.249  53.317
84970W        W76894  11.247   9.241  53.789
84971W        W76895  17.749  13.769  52.863
84972W        W76896  13.262  20.716  51.534
84973W        W76897  47.219  46.703  51.991
84974W        W76898  15.269   0.252  53.353
84975W        W76899   7.261  40.687  53.807
84976W        W76900  25.740  16.231  51.961
84977W        W76901  12.765  31.234  50.166
84978W        W76902  44.196   6.245  50.608
84979W        W76903  13.727  10.739  51.970
84980W        W76904  28.233  32.208  52.875
84981W        W76905  43.190   3.285  52.873
84982W        W76906   2.278  47.689  51.987
84983W        W76907   8.763  11.259  51.524
84984W        W76908  44.194  11.250  50.584
84985W        W76909  22.761  40.690  52.873
84986W        W76910  39.208   1.261  51.075
84987W        W76911  14.232  17.259  52.441
84988W        W76912  43.698   7.742  51.048
84989W        W76913  33.729   9.244  51.074
84990W        W76914   4.257  10.750  51.987
84991W        W76915  19.248  23.719  50.579
84992W        W76916   1.795  22.755  53.346
84993W        W76917  45.722  42.724  51.046
84994W        W76918  42.211   7.755  50.585
84995W        W76919   6.283   0.761  52.422
84996W        W76920   8.769  38.207  50.141
84997W        W76921  11.259  13.768  53.805
84998W        W76922   4.249  15.268  50.621
84999W        W76923  38.191  18.744  52.864
85000W        W76924  45.685   8.255  51.986
85001W        W76925  13.773  24.712  53.775
85002W        W76926  37.200  22.731  51.037
85003W        W76927  12.237  45.201  53.342
85004W        W76928   6.282  19.764  52.863
85005W        W76929   0.282  19.261  50.597
85006W        W76930  21.737  39.221  51.501
85007W        W76931  33.236  11.271  53.326
85008W        W76932   8.754  16.249  51.964
85009W        W76933   8.779  21.723  51.987
85010W        W76934  33.698  11.738  52.439
85011W        W76935  43.684   8.277  49.675
85012W        W76936  17.241  22.245  51.490
85013W        W76937  39.231  35.731  52.419
85014W        W76938  42.717  19.266  50.615
85015W        W76939  26.715  25.241  52.425
85016W        W76940  10.747  17.753  51.988
85017W        W76941   8.282  42.218  51.958
85018W        W76942   0.798  13.241  49.684
85019W        W76943  34.201   1.784  49.687
85020W        W76944  41.708  24.721  50.151
85021W        W76945  39.721   7.776  49.692
85022W        W76946  10.747  42.680  50.611
85023W        W76947  43.701  11.741  51.981
85024W        W76948  34.737  21.244  52.419
85025W        W76949  43.219  24.236  53.807
85026W        W76950  13.774  45.713  50.617
85027W        W76951  23.751  12.741  52.870
85028W        W76952   7.773  32.233  51.955
85029W        W76953  23.220   2.269  50.125
85030W        W76954  47.684   2.750  49.666
85031W        W76955  45.711  21.248  50.588
85032W        W76956  21.246   7.248  51.495
85033W        W76957   1.261  24.236  52.415
85034W        W76958  39.192  26.747  49.687
85035W        W76959  43.710  44.718  52.426
85036W        W76960  27.742  37.725  51.501
85037W        W76961  47.686  26.752  50.153
85038W        W76962   5.285   8.751  49.706
85039W        W76963  44.182  38.726  49.677
85040W        W76964  46.675  31.240  53.359
85041W        W76965  37.726  40.229  51.062
85042W        W76966  39.202   6.275  50.132
85043W        W76967  25.750  23.747  51.042
85044W        W76968   3.280   4.268  51.527
85045W        W76969  20.245  47.695  51.034
85046W        W76970  27.224  29.737  51.045
85047W        W76971  40.222  34.733  52.437
85048W        W76972  22.253  31.718  50.578
85049W        W76973  37.235  21.217  50.595
85050W        W76974  23.760   2.772  52.428
85051W        W76975   1.283  28.236  49.666
85052W        W76976  40.185  22.259  49.695
85053W        W76977  31.707  27.741  53.779
85054W        W76978  31.240  30.732  51.991
85055W        W76979  30.214   5.288  53.808
85056W        W76980  21.762  13.277  50.135
85057W        W76981  39.234  38.199  51.065
85058W        W76982  44.714  25.717  50.594
85059W        W76983  18.239  12.743  53.349
85060W        W76984  48.209  40.685  53.808
85061W        W76985  23.240  30.740  50.145
85062W        W76986  32.232  29.740  53.318
85063W        W76987  26.215  38.188  51.043
85064W        W76988  16.267  46.213  50.139
85065W        W76989  44.225  43.711  53.778
85066W        W76990  47.195  19.755  51.979
85067W        W76991   5.261  34.742  52.430
85068W        W76992  12.279   4.774  51.964
85069W        W76993  14.276  15.736  49.704
85070W        W76994   0.294   1.256  52.864
85071W        W76995  24.716  28.209  52.890
85072W        W76996  10.770   8.750  52.885
85073W        W76997  25.745   9.756  51.060
85074W        W76998   0.792  19.722  51.949
85075W        W76999  15.727  34.703  49.705
85076W        W77000   5.782  40.687  51.519
85077W        W77001  19.765  34.717  53.786
85078W        W77002  40.196  29.745  53.352
85079W        W77003   0.790  14.754  50.126
85080W        W77004  28.742  34.208  53.804
85081W        W77005  45.203  16.224  53.800
85082W        W77006  38.731  22.251  51.964
85083W        W77007   3.281   0.796  51.954
85084W        W77008  14.227  44.706  52.436
85085W        W77009  10.782  29.738  53.320
85086W        W77010  33.706  19.757  49.668
85087W        W77011   9.268  11.757  51.963
85088W        W77012   2.758  32.210  52.903
85089W        W77013  31.741  42.226  51.041
85090W        W77014  19.236  26.208  51.955
85091W        W77015  14.761  25.748  50.165
85092W        W77016   0.279  14.749  51.049
85093W        W77017   7.285  11.755  53.809
85094W        W77018  45.185   7.762  51.960
85095W        W77019  28.206  47.188  52.895
85096W        W77020  12.740   5.275  50.164
85097W        W77021  31.708   8.239  50.131
85098W        W77022  16.726   5.783  52.867
85099W        W77023  21.216  29.239  52.877
85100W        W77024   5.771  26.229  53.800
85101W        W77025  43.219   7.272  51.049
85102W        W77026  44.687  20.755  51.042
85103W        W77027  14.262  23.232  49.709
85104W        W77028  40.184  22.220  51.071
85105W        W77029  21.246  11.753  49.697
85106W        W77030  14.268  40.720  53.791
85107W        W77031  35.704  43.692  53.348
85108W        W77032  41.228  18.724  49.679
85109W        W77033   8.759  24.724  50.588
85110W        W77034   4.253   1.275  52.440
85111W        W77035   7.755  33.699  52.890
85112W        W77036  47.686  38.709  50.578
85113W        W77037  13.251  16.764  51.050
85114W        W77038  30.721  13.755  50.137
85115W        W77039  15.243  48.197  50.579
85116W        W77040   4.261  41.220  50.589
85117W        W77041  25.224   8.775  50.615
85118W        W77042  47.186  42.699  51.504
85119W        W77043  30.724  42.202  51.948
85120W        W77044  29.751  31.246  52.862
85121W        W77045  27.745   6.281  50.162
85122W        W77046  28.716  39.191  49.666
85123W        W77047  17.230   4.245  51.527
85124W        W77048  25.744   0.252  51.966
85125W        W77049  45.224   9.737  51.042
85126W        W77050  39.702  16.733  53.346
85127W        W77051   9.756  26.714  53.807
85128W        W77052  22.253  11.274  52.892
85129W        W77053   8.285  39.733  53.806
85130W        W77054  40.702  17.765  49.686
85131W        W77055  30.738  20.760  52.890
85132W        W77056  10.251  27.242  52.894
85133W        W77057  30.215  40.214  51.504
85134W        W77058   0.274  15.769  51.060
85135W        W77059  37.237  33.697  51.497
85136W        W77060  34.739  32.721  49.701
85137W        W77061  30.231  20.720  53.327
85138W        W77062  28.726  28.208  50.161
85139W        W77063  23.252  15.230  53.772
85140W        W77064   1.261  20.721  50.590
85141W        W77065  40.202   4.258  52.872
85142W        W77066  27.216  39.721  50.152
85143W        W77067  32.719  36.216  53.344
85144W        W77068  35.230  44.177  51.512
85145W        W77069  24.747  36.690  51.535
85146W        W77070  46.199  44.688  52.420
85147W        W77071  11.256  24.721  53.808
85148W        W77072  24.721  40.700  53.340
85149W        W77073  16.233   5.772  50.142
85150W        W77074   1.290   1.275  53.342
85151W        W77075  34.198  21.215  51.077
85152W        W77076   1.263  26.715  51.055
85153W        W77077  23.719  46.686  51.066
85154W        W77078  32.743   2.777  51.955
85155W        W77079  22.745  25.718  51.979
85156W        W77080  41.726  20.224  49.675
85157W        W77081   0.749   7.775  51.496
85158W        W77082  22.745  15.740  51.034
85159W        W77083  14.731  35.730  53.797
85160W        W77084  37.201  37.235  52.866
85161W        W77085   0.281  46.693  51.519
85162W        W77086  30.719  39.709  52.865
85163W        W77087  25.755  21.224  51.990
85164W        W77088   1.274  44.210  51.514
85165W        W77089  39.704  35.234  49.684
85166W        W77090   6.289   1.260  53.341
85167W        W77091  22.730  19.729  51.054
85168W        W77092   6.245   7.249  50.619
85169W        W77093  17.755  21.254  53.802
85170W        W77094  13.245  48.173  52.861
85171W        W77095  40.192  39.700  51.949
85172W        W77096  16.267  28.703  52.440
85173W        W77097  45.180  42.192  52.417
85174W        W77098  30.728  35.714  53.318
85175W        W77099  22.721  47.209  50.590
85176W        W77100  26.732  12.235  52.898
85177W        W77101  46.718  33.233  50.124
85178W        W77102   0.773  17.745  52.443
85179W        W77103  22.747  42.222  52.874
85180W        W77104  41.193  32.731  50.595
85181W        W77105  30.208  39.713  53.777
85182W        W77106  37.726  34.212  51.036
85183W        W77107  36.222  30.219  51.524
85184W        W77108  31.200  38.228  52.881
85185W        W77109  41.717  18.752  49.676
85186W        W77110  26.210  39.700  51.491
85187W        W77111  29.227  44.203  51.075
85188W        W77112  38.724  16.231  52.414
85189W        W77113   7.281  17.247  50.591
85190W        W77114  33.221   3.749  53.353
85191W        W77115  47.720  12.267  53.780
85192W        W77116  24.750  24.744  52.409
85193W        W77117  40.719  14.732  52.894
85194W        W77118  21.228  18.255  51.066
85195W        W77119  48.177  29.247  50.579
85196W        W77120  29.740  12.742  52.437
85197W        W77121  23.732  41.195  52.438
85198W        W77122  27.233  10.242  50.601
85199W        W77123   2.280  34.203  51.528
85200W        W77124   1.786  21.260  52.422
85201W        W77125  39.225  23.739  49.666
85202W        W77126  26.244  41.209  53.784
85203W        W77127  46.720  35.722  52.433
85204W        W77128  19.750  18.261  49.681
85205W        W77129  23.228   4.245  49.702
85206W        W77130  20.254  41.691  50.579
85207W        W77131   4.275   1.750  50.133
85208W        W77132  35.711  43.210  53.329
85209W        W77133   0.278   4.267  52.435
85210W        W77134  14.768  44.701  52.883
85211W        W77135  13.735  40.205  49.690
85212W        W77136  43.187  25.711  51.501
85213W        W77137  31.223  47.715  51.958
85214W        W77138   0.262   6.241  53.318
85215W        W77139  12.747  24.249  53.343
85216W        W77140  24.732   1.773  53.799
85217W        W77141   7.782  37.705  53.778
85218W        W77142  27.728  31.246  53.810
85219W        W77143  32.718  33.722  49.673
85220W        W77144   7.274  32.225  53.325
85221W        W77145  47.701  45.714  52.419
85222W        W77146   6.757  16.767  53.774
85223W        W77147  34.207  17.262  51.528
85224W        W77148  23.228  37.209  51.052
85225W        W77149  28.710   3.287  50.134
85226W        W77150   4.791  45.700  52.429
85227W        W77151  42.697   9.258  53.794
85228W        W77152   6.783   6.761  50.144
85229W        W77153  26.235   2.770  52.882
85230W        W77154  25.236  35.209  51.495
85231W        W77155  21.748  26.756  52.434
85232W        W77156   8.250   2.757  50.620
85233W        W77157  22.229  25.727  51.514
85234W        W77158   8.244  26.748  49.693
85235W        W77159  24.753  39.222  52.443
85236W        W77160  30.200  42.692  49.680
85237W        W77161  10.774  31.209  50.161
85238W        W77162  39.689  15.242  52.430
85239W        W77163  46.217   4.265  53.794
85240W        W77164  20.237   8.753  53.811
85241W        W77165  23.746  22.240  53.809
85242W        W77166   0.769  11.761  52.899
85243W        W77167  31.724  25.722  50.593
85244W        W77168  11.281  26.222  53.340
85245W        W77169   3.766  21.246  51.508
85246W        W77170  39.212  20.242  52.433
85247W        W77171   4.254   8.760  53.803
85248W        W77172  37.711  47.184  50.589
85249W        W77173  34.721  10.734  52.859
85250W        W77174  29.210  14.734  53.778
85251W        W77175   2.749  10.235  52.413
85252W        W77176  23.257  36.703  50.578
85253W        W77177  21.752  22.263  49.678
85254W        W77178   6.751  30.247  53.784
85255W        W77179  39.712  22.222  52.416
85256W        W77180  10.742  14.274  50.594
85257W        W77181  38.728  27.708  53.781
85258W        W77182  32.236  31.745  53.779
85259W        W77183   0.264  31.726  50.597
85260W        W77184  18.758  45.712  51.954
85261W        W77185  27.240  16.746  51.535
85262W        W77186  15.238  44.213  50.600
85263W        W77187  19.234  25.748  50.140
85264W        W77188  38.729  37.214  51.965
85265W        W77189  25.721  24.234  52.874
85266W        W77190  24.225   3.276  51.067
85267W        W77191  28.252  30.206  53.331
85268W        W77192  10.770   0.792  52.864
85269W        W77193   2.764  25.234  53.816
85270W        W77194  12.242  19.730  53.355
85271W        W77195  31.744  21.246  53.325
85272W        W77196  19.744   0.295  50.140
85273W        W77197  17.260  25.749  52.413
85274W        W77198  36.233   7.268  51.065
85275W        W77199  35.699   0.251  51.985
85276W        W77200  34.723  10.278  49.707
85277W        W77201  30.732  12.762  53.349
85278W        W77202  30.728  37.733  50.143
85279W        W77203   5.784  24.715  49.672
85280W        W77204   0.787  10.748  52.874
85281W        W77205  17.246   5.747  51.051
85282W        W77206  46.210   1.297  49.709
85283W        W77207  27.245   9.738  53.808
85284W        W77208  42.190  35.719  52.889
85285W        W77209   9.760  37.207  53.323
85286W        W77210  19.229   2.279  50.622
85287W        W77211  41.224  36.209  53.348
85288W        W77212   4.271   2.276  49.676
85289W        W77213  12.732  19.234  50.584
85290W        W77214  46.181  11.762  53.807
85291W        W77215  42.705  15.729  52.899
85292W        W77216  29.241   6.780  53.800
85293W        W77217  10.278  27.754  52.891
85294W        W77218  10.235  37.727  52.430
85295W        W77219  29.247  41.231  50.584
85296W        W77220  31.229  47.218  53.810
85297W        W77221  21.248   1.764  50.585
85298W        W77222  23.241   2.762  49.697
85299W        W77223  44.683  26.234  51.047
85300W        W77224   2.749  19.234  53.334
85301W        W77225   1.287   0.761  53.353
85302W        W77226  37.699   9.752  51.966
85303W        W77227  23.252  26.710  52.879
85304W        W77228  28.739  32.231  52.888
85305W        W77229  28.220  29.220  51.504
85306W        W77230  22.227  24.746  52.423
85307W        W77231  13.734  12.758  53.796
85308W        W77232  46.179  42.684  52.884
85309W        W77233   0.792  30.719  51.979
85310W        W77234   2.266  34.224  53.808
85311W        W77235  46.176   7.265  50.126
85312W        W77236  27.216   7.758  50.590
85313W        W77237   3.757   8.751  52.869
85314W        W77238  13.270  15.760  53.810
85315W        W77239  20.253  16.251  51.985
85316W        W77240  11.744  22.721  50.590
85317W        W77241   5.754   1.249  51.525
85318W        W77242  17.245  12.243  51.949
85319W        W77243  20.243  17.759  52.427
85320W        W77244  45.176   7.282  53.328
85321W        W77245  18.739  26.726  51.987
85322W        W77246  32.233  14.241  53.804
85323W        W77247  19.725   8.757  53.335
85324W        W77248  35.240  42.206  50.622
85325W        W77249   8.237  14.230  52.429
85326W        W77250  11.256   0.775  53.801
85327W        W77251   3.287  39.720  53.328
85328W        W77252  41.209  15.241  50.127
85329W        W77253  41.697   4.268  49.674
85330W        W77254  12.253   6.764  50.586
85331W        W77255   4.257  32.246  52.413
85332W        W77256   7.251  10.282  52.422
85333W        W77257  21.741  13.758  52.406
85334W        W77258  32.223   1.267  50.593
85335W        W77259  38.705  17.261  50.135
85336W        W77260   6.251  34.703  51.969
85337W        W77261  19.262  11.265  51.061
85338W        W77262  46.212  43.198  52.417
85339W        W77263  21.253  42.714  52.863
85340W        W77264   6.772   7.761  50.125
85341W        W77265   5.272  11.264  51.041
85342W        W77266  27.725  47.717  53.352
85343W        W77267   7.766  35.741  53.811
85344W        W77268  41.705   6.787  50.123
85345W        W77269   4.270  21.222  51.520
85346W        W77270  22.737  19.762  50.591
85347W        W77271  18.255   7.749  52.423
85348W        W77272  16.732  21.237  52.421
85349W        W77273  40.689  43.195  53.811
85350W        W77274  21.717  46.687  53.324
85351W        W77275  27.754  16.231  51.048
85352W        W77276  23.244  32.723  52.448
85353W        W77277   3.285   4.772  50.598
85354W        W77278   7.776   3.264  50.605
85355W        W77279  12.269  36.713  51.532
85356W        W77280  24.743   8.763  50.607
85357W        W77281  10.250  12.255  52.895
85358W        W77282  40.726  21.223  52.878
85359W        W77283  25.740  29.739  50.141
85360W        W77284  14.762   8.763  49.706
85361W        W77285   4.758   0.797  49.701
85362W        W77286  10.281  29.211  51.514
85363W        W77287   0.265  40.685  52.903
85364W        W77288  25.712  22.735  52.894
85365W        W77289  19.240  40.233  52.438
85366W        W77290  32.239   0.796  49.687
85367W        W77291  11.237  35.727  51.051
85368W        W77292  41.206  10.769  51.047
85369W        W77293  40.186  33.744  50.594
85370W        W77294  36.721  12.751  49.672
85371W        W77295  47.188  41.692  52.422
85372W        W77296  11.771  30.236  53.780
85373W        W77297  38.199  27.709  51.039
85374W        W77298  34.732  44.214  50.128
85375W        W77299  34.693  46.716  52.447
85376W        W77300  25.235  44.218  52.423
85377W        W77301  35.202   7.760  53.778
85378W        W77302  44.694   8.774  52.862
85379W        W77303   7.782  41.704  51.059
85380W        W77304  45.195   9.779  53.351
85381W        W77305  17.235   6.254  50.154
85382W        W77306  39.726  22.741  49.704
85383W        W77307  31.214   6.747  52.866
85384W        W77308   6.760  36.727  52.437
85385W        W77309  13.275  18.741  50.613
85386W        W77310   7.742   2.246  51.506
85387W        W77311  38.686  44.226  53.340
85388W        W77312  42.188  43.709  53.777
85389W        W77313   0.290  42.699  52.877
85390W        W77314  45.197   3.770  49.704
85391W        W77315   6.277  43.718  50.617
85392W        W77316  31.727  40.223  51.512
85393W        W77317  24.740  29.707  49.689
85394W        W77318  26.730  25.229  53.791
85395W        W77319  34.231  30.200  50.160
85396W        W77320  11.742  47.687  51.986
85397W        W77321   6.255  40.196  51.045
85398W        W77322  26.252  30.207  53.795
85399W        W77323   7.283  45.180  49.684
85400W        W77324  38.201  32.209  51.979
85401W        W77325  28.750  38.712  51.535
85402W        W77326  12.250  17.768  52.427
85403W        W77327   2.791  25.232  53.354
85404W        W77328   6.248  44.711  50.614
85405W        W77329  43.721  10.755  50.131
85406W        W77330  19.732  39.697  53.807
85407W        W77331   1.268   5.269  49.682
85408W        W77332  19.231  42.693  49.695
85409W        W77333   6.759   8.742  52.445
85410W        W77334  46.207   8.257  50.581
85411W        W77335   7.761  33.200  51.990
85412W        W77336  31.711  45.694  49.682
85413W        W77337  14.241  10.263  50.134
85414W        W77338  13.241  18.240  49.693
85415W        W77339  22.219  43.680  50.589
85416W        W77340  43.715  28.714  50.131
85417W        W77341   1.281  40.191  51.533
85418W        W77342   9.779  41.204  51.963
85419W        W77343  13.770  46.174  52.446
85420W        W77344  17.731  37.707  53.777
85421W        W77345  19.240  27.750  51.534
85422W        W77346  29.711  26.242  53.353
85423W        W77347   3.269  35.710  53.782
85424W        W77348  41.184  43.210  49.697
85425W        W77349  24.213  19.761  50.129
85426W        W77350   0.756  33.723  52.869
85427W        W77351  42.723  16.246  49.705
85428W        W77352  15.249  19.740  52.424
85429W        W77353  28.717   8.254  53.796
85430W        W77354  37.225   3.784  53.352
85431W        W77355  18.738  17.241  49.709
85432W        W77356   3.292  23.725  50.583
85433W        W77357  45.721   6.269  53.786
85434W        W77358  43.196  26.747  50.604
85435W        W77359  39.724  42.224  53.322
85436W        W77360   3.268   0.267  50.138
85437W        W77361  39.210  16.770  52.872
85438W        W77362  42.721  44.201  53.342
85439W        W77363  37.694   5.249  52.440
85440W        W77364   8.742   4.274  53.785
85441W        W77365  41.702   0.254  53.790
85442W        W77366  24.241  31.233  51.952
85443W        W77367  34.218  11.255  50.151
85444W        W77368  36.706   4.783  53.803
85445W        W77369  19.266   8.274  53.336
85446W        W77370   4.772   8.271  51.979
85447W        W77371  17.228  11.261  50.621
85448W        W77372  35.227  22.240  51.065
85449W        W77373  39.206   1.277  53.787
85450W        W77374  26.237  14.735  50.604
85451W        W77375  28.246  47.198  53.356
85452W        W77376  48.178   1.261  53.783
85453W        W77377   0.285  15.226  53.336
85454W        W77378   5.758  39.731  52.904
85455W        W77379  40.225  17.243  51.078
85456W        W77380  39.222   2.264  49.691
85457W        W77381  43.228  25.244  52.904
85458W        W77382   9.749  30.739  50.166
85459W        W77383  31.209  45.197  52.867
85460W        W77384   3.749  35.739  53.347
85461W        W77385  12.268  48.203  51.950
85462W        W77386  17.739  13.272  51.047
85463W        W77387  16.267   7.257  50.603
85464W        W77388   5.779   9.765  53.346
85465W        W77389  11.742  24.716  51.043
85466W        W77390  22.746  13.272  50.147
85467W        W77391  16.769  10.242  51.534
85468W        W77392  29.213  37.691  53.337
85469W        W77393  14.240  28.748  49.687
85470W        W77394  35.738  11.235  53.811
85471W        W77395  28.705  39.207  51.518
85472W        W77396  28.231  40.208  53.808
85473W        W77397  37.234  23.754  49.688
85474W        W77398  20.726  14.243  53.781
85475W        W77399  44.219  15.767  52.446
85476W        W77400  41.724  35.235  50.617
85477W        W77401  19.254  38.726  52.430
85478W        W77402  28.716  14.758  51.967
85479W        W77403  44.699  30.709  50.608
85480W        W77404   6.280  35.730  51.975
85481W        W77405  14.276  28.229  51.504
85482W        W77406  19.243  47.709  53.813
85483W        W77407  23.754  19.747  53.778
85484W        W77408  15.233   4.258  50.577
85485W        W77409   9.270  44.709  49.672
85486W        W77410  40.722  10.776  53.797
85487W        W77411  21.262  34.222  53.807
85488W        W77412  37.728  42.194  51.526
85489W        W77413  15.258  36.197  51.513
85490W        W77414  29.713  17.257  52.877
85491W        W77415  23.750  29.715  51.958
85492W        W77416  33.196  18.732  53.799
85493W        W77417  29.203  18.244  53.343
85494W        W77418  40.219  28.706  51.070
85495W        W77419   7.758  19.227  53.790
85496W        W77420  45.686  40.684  52.898
85497W        W77421  45.712   5.789  51.513
85498W        W77422  36.729  24.237  53.347
85499W        W77423  29.715   4.744  49.690
85500W        W77424  36.712  43.721  51.038
85501W        W77425  23.749  42.685  53.320
85502W        W77426   4.256  38.711  51.957
85503W        W77427  46.221  26.722  51.073
85504W        W77428  42.223  28.736  53.795
85505W        W77429  15.249  35.710  52.440
85506W        W77430  33.725  39.729  53.316
85507W        W77431  38.715  36.203  51.981
85508W        W77432   8.760   4.256  49.691
85509W        W77433   1.256   2.776  50.160
85510W        W77434   6.268   4.757  50.586
85511W        W77435  33.728  22.713  51.529
85512W        W77436   5.744  39.700  49.709
85513W        W77437  42.183   6.274  52.873
85514W        W77438  21.738  36.203  50.121
85515W        W77439  30.209  11.246  53.798
85516W        W77440  46.186  21.751  50.600
85517W        W77441  33.244   9.781  50.605
85518W        W77442  40.686  31.708  52.861
85519W        W77443  19.257  20.217  51.956
85520W        W77444  12.253  47.209  51.958
85521W        W77445  12.269  15.751  53.350
85522W        W77446   8.741  15.262  50.605
85523W        W77447  48.180  39.711  52.435
85524W        W77448   7.773  22.221  50.582
85525W        W77449  30.219   4.257  49.689
85526W        W77450  31.211  10.244  52.428
85527W        W77451   5.251  42.192  51.535
85528W        W77452   2.246  11.254  52.413
85529W        W77453  21.234  39.685  53.800
85530W        W77454  14.771  47.721  51.948
85531W        W77455  30.221  34.731  51.065
85532W        W77456   9.283  44.707  51.972
85533W        W77457  14.233   5.779  52.428
85534W        W77458   1.283  42.712  51.075
85535W        W77459  17.259  12.769  52.414
85536W        W77460  34.729  16.243  52.445
85537W        W77461  30.240  35.693  52.415
85538W        W77462  31.733  31.230  51.073
85539W        W77463  44.689  40.720  53.798
85540W        W77464  46.197  16.726  51.956
85541W        W77465  21.746  28.248  51.948
85542W        W77466  10.262  45.713  51.504
85543W        W77467   6.782  20.722  51.531
85544W        W77468  37.707  48.186  52.423
85545W        W77469  12.275  24.721  50.583
85546W        W77470  45.706   8.275  53.803
85547W        W77471  47.183  35.739  51.981
85548W        W77472  15.249   5.270  50.142
85549W        W77473   8.274   7.784  52.861
85550W        W77474   8.773  15.758  51.989
85551W        W77475   1.278  16.726  49.686
85552W        W77476  13.748  23.747  50.124
85553W        W77477  41.685  44.202  50.601
85554W        W77478   7.278   2.783  51.969
85555W        W77479  47.180   8.746  53.816
85556W        W77480  29.227  28.253  51.038
85557W        W77481  18.266  39.707  52.901
85558W        W77482  27.727   4.757  50.583
85559W        W77483  36.209  16.226  52.871
85560W        W77484  11.281   3.744  53.325
85561W        W77485  37.696  25.749  53.781
85562W        W77486  28.222  47.212  50.164
85563W        W77487  14.749  37.718  53.787
85564W        W77488  16.247  35.217  52.874
85565W        W77489   5.785  17.746  51.527
85566W        W77490   8.746  15.249  53.798
85567W        W77491  40.699  16.750  53.349
85568W        W77492  31.223  25.752  52.410
85569W        W77493  24.729  48.192  51.959
85570W        W77494   0.765  22.760  50.135
85571W        W77495  40.723  15.225  50.612
85572W        W77496   4.247  13.728  51.505
85573W        W77497  46.196  13.739  53.808
85574W        W77498  46.182  16.740  52.444
85575W        W77499  39.729  37.218  50.600
85576W        W77500  37.215  23.735  53.329
85577W        W77501  25.736   7.780  50.132
85578W        W77502   0.788  28.250  52.863
85579W        W77503  40.213  23.730  51.521
85580W        W77504   3.285  43.683  51.956
85581W        W77505  41.194  40.219  52.439
85582W        W77506  45.717  46.215  52.892
85583W        W77507   0.778  15.772  50.582
85584W        W77508  25.237  15.260  49.708
85585W        W77509   1.264   4.766  51.038
85586W        W77510  45.717  28.213  50.150
85587W        W77511  17.730  35.202  52.445
85588W        W77512  47.193  42.215  53.790
85589W        W77513  28.722  42.714  49.691
85590W        W77514  14.268  45.185  51.948
85591W        W77515  21.757  23.759  49.673
85592W        W77516  37.727   7.277  51.494
85593W        W77517  45.214  31.740  51.979
85594W        W77518  11.780  41.707  49.665
85595W        W77519  47.685  37.734  50.587
85596W        W77520  16.754   1.779  52.428
85597W        W77521  21.250  24.213  53.334
85598W        W77522  47.184   3.772  50.607
85599W        W77523  18.740  18.733  51.037
85600W        W77524  17.751  43.725  52.879
85601W        W77525  47.717   5.274  51.069
85602W        W77526  20.743   2.790  52.434
85603W        W77527  31.207  38.236  53.815
85604W        W77528  34.198  48.213  53.774
85605W        W77529  28.743   3.275  51.524
85606W        W77530  32.699  13.253  49.703
85607W        W77531  37.211  39.720  52.899
85608W        W77532  28.239  16.272  53.779
85609W        W77533   1.762  37.723  52.404
85610W        W77534   4.787  44.222  53.358
85611W        W77535  14.736   0.270  50.155
85612W        W77536  11.239  28.236  52.439
85613W        W77537  41.698  30.747  50.597
85614W        W77538  44.185  25.741  51.063
85615W        W77539   3.745  25.713  50.125
85616W        W77540  16.736  20.757  53.787
85617W        W77541  17.768  15.724  53.346
85618W        W77542  22.732  23.228  49.696
85619W        W77543  14.732   0.272  52.863
85620W        W77544   7.760  43.717  50.613
85621W        W77545  21.750  20.252  50.603
85622W        W77546  28.239  31.728  53.348
85623W        W77547  34.236   5.777  51.071
85624W        W77548   8.755  44.190  50.130
85625W        W77549  13.774  13.752  53.349
85626W        W77550  23.760  26.237  52.861
85627W        W77551  36.224  17.725  53.351
85628W        W77552  28.716  36.236  52.428
85629W        W77553   6.753  39.719  52.900
85630W        W77554  35.193  21.217  52.443
85631W        W77555  14.773  31.213  50.580
85632W        W77556  18.240  21.724  53.790
85633W        W77557  46.196  44.723  49.690
85634W        W77558  46.200  37.737  52.896
85635W        W77559  12.745  16.732  49.692
85636W        W77560  13.258   7.260  51.067
85637W        W77561   4.769  20.228  51.059
85638W        W77562  38.225  40.214  49.701
85639W        W77563  20.258  37.722  53.358
85640W        W77564  36.240  22.735  53.349
85641W        W77565  38.719  40.215  50.141
85642W        W77566  33.241  30.715  52.421
85643W        W77567  15.729   1.286  52.886
85644W        W77568  25.736   7.279  51.517
85645W        W77569  21.735   1.276  53.341
85646W        W77570  20.220  45.684  53.796
85647W        W77571  27.709  41.692  50.600
85648W        W77572  23.724  30.735  51.046
85649W        W77573   1.785  27.215  52.863
85650W        W77574  47.716  35.220  53.332
85651W        W77575  22.256  29.246  53.357
85652W        W77576   1.274  14.747  51.493
85653W        W77577  47.683  21.747  51.036
85654W        W77578  22.256  28.244  49.680
85655W        W77579  13.247  26.737  51.506
85656W        W77580   5.254  40.184  52.889
85657W        W77581  21.727  26.210  51.967
85658W        W77582  44.218  18.248  50.141
85659W        W77583   1.789  29.747  51.072
85660W        W77584  15.243   9.752  50.588
85661W        W77585  36.227   2.288  49.693
85662W        W77586   9.735  40.228  52.436
85663W        W77587  46.204  43.186  51.949
85664W        W77588  44.691  29.712  51.534
85665W        W77589  46.201  26.750  53.811
85666W        W77590  22.759   8.762  53.783
85667W        W77591  36.236  13.763  52.445
85668W        W77592  42.189  35.694  50.159
85669W        W77593  25.218  21.224  50.587
85670W        W77594  39.698  40.727  51.495
85671W        W77595  15.270  28.228  51.980
85672W        W77596  23.720  10.771  52.430
85673W        W77597  43.721  21.262  52.446
85674W        W77598  16.250  18.244  49.665
85675W        W77599  27.731  25.223  53.341
85676W        W77600  32.736  27.219  49.684
85677W        W77601  20.719   2.759  51.987
85678W        W77602   4.244  25.239  51.078
85679W        W77603   4.286   8.274  51.041
85680W        W77604  33.244  45.689  53.320
85681W        W77605   6.782  34.731  50.610
85682W        W77606  44.220  11.271  53.320
85683W        W77607  30.726  33.237  52.440
85684W        W77608  26.726  29.741  53.346
85685W        W77609  28.253  44.688  52.873
85686W        W77610  26.746  14.747  51.069
85687W        W77611  30.245  35.203  50.607
85688W        W77612  28.711  40.713  51.970
85689W        W77613  20.764   1.258  50.158
85690W        W77614   3.779  25.742  51.491
85691W        W77615  25.724  40.210  52.405
85692W        W77616  40.730  35.202  53.784
85693W        W77617  20.264  20.752  51.490
85694W        W77618  28.732   4.767  50.599
85695W        W77619  46.216  14.247  53.816
85696W        W77620  34.741   1.757  51.947
85697W        W77621  47.217   4.292  51.968
85698W        W77622  26.711   1.266  49.704
85699W        W77623   1.280  26.715  49.666
85700W        W77624   3.268  17.236  50.147
85701W        W77625  23.720  38.231  52.438
85702W        W77626   0.780   4.275  52.904
85703W        W77627  41.189   4.252  53.359
85704W        W77628   3.748   7.773  53.798
85705W        W77629  11.257  14.245  53.334
85706W        W77630  41.725  47.684  49.685
85707W        W77631   2.773  44.687  52.414
85708W        W77632   8.758  28.729  53.777
85709W        W77633  13.740  29.736  50.130
85710W        W77634  15.768  45.182  50.620
85711W        W77635  38.219  30.748  50.156
85712W        W77636  32.741  22.220  52.887
85713W        W77637  17.755  29.209  52.411
85714W        W77638  37.213  35.206  49.683
85715W        W77639  21.749   0.261  53.802
85716W        W77640  42.689  15.273  52.437
85717W        W77641  33.737  15.270  51.528
85718W        W77642   4.753  45.713  51.960
85719W        W77643  34.241   9.258  51.066
85720W        W77644  39.723  36.204  53.329
85721W        W77645  27.239  20.758  50.146
85722W        W77646  45.194  29.249  53.784
85723W        W77647   3.284   7.284  51.518
85724W        W77648  19.247  40.215  51.499
85725W        W77649  16.743  40.210  51.958
85726W        W77650  29.744  19.758  52.867
85727W        W77651  34.207  46.201  53.782
85728W        W77652  28.735  15.243  53.817
85729W        W77653  33.233  14.249  51.492
85730W        W77654  13.753   7.757  50.122
85731W        W77655  41.720  11.732  52.426
85732W        W77656  30.706  35.711  53.781
85733W        W77657   0.757  41.183  53.337
85734W        W77658  46.215   3.759  52.443
85735W        W77659  42.680  10.751  53.346
85736W        W77660  15.762   2.760  53.808
85737W        W77661  46.715   0.298  51.962
85738W        W77662  11.744  13.749  52.408
85739W        W77663  29.215   5.253  53.809
85740W        W77664  36.723  11.753  52.893
85741W        W77665  33.708  29.707  52.903
85742W        W77666  11.258   3.251  50.582
85743W        W77667   3.255  40.693  53.320
85744W        W77668  29.208  36.715  51.519
85745W        W77669  39.230  31.223  51.526
85746W        W77670  20.263   2.789  50.592
85747W        W77671  39.186  31.207  52.879
85748W        W77672  10.280  10.234  50.607
85749W        W77673  46.210  38.714  49.673
85750W        W77674   9.259  26.210  52.899
85751W        W77675  10.263  43.218  49.671
85752W        W77676  39.694  36.197  51.533
85753W        W77677  26.724  46.703  50.145
85754W        W77678  17.765  42.182  53.325
85755W        W77679   6.280  34.734  51.074
85756W        W77680  14.228   1.762  51.491
85757W        W77681  21.749  12.276  51.034
85758W        W77682  40.194  27.228  51.534
85759W        W77683  18.243  37.694  51.970
85760W        W77684  41.695  40.710  52.410
85761W        W77685  32.742  25.231  52.412
85762W        W77686  23.726  25.712  51.062
85763W        W77687  31.219  42.190  51.055
85764W        W77688  37.704  43.225  53.343
85765W        W77689  47.680   4.253  51.527
85766W        W77690   2.750  17.239  52.423
85767W        W77691  38.199  19.747  52.871
85768W        W77692  42.682  22.723  50.141
85769W        W77693  38.221   0.292  53.775
85770W        W77694  47.185  11.751  50.158
85771W        W77695  29.737  20.757  52.892
85772W        W77696   5.778   3.781  51.969
85773W        W77697   8.256  46.702  50.153
85774W        W77698  31.720  47.687  53.338
85775W        W77699  44.683   1.762  49.687
85776W        W77700  29.726  46.186  52.875
85777W        W77701  18.243   5.253  53.784
85778W        W77702  14.760  12.772  49.695
85779W        W77703  12.772   7.786  51.521
85780W        W77704   9.274  43.686  53.347
85781W        W77705  37.191  13.748  50.606
85782W        W77706   6.250  48.219  53.793
85783W        W77707  22.750   0.798  51.496
85784W        W77708  22.755   1.772  52.863
85785W        W77709  19.744  42.186  51.508
85786W        W77710   0.264  39.214  51.061
85787W        W77711  11.769  44.203  52.413
85788W        W77712  42.210  24.213  53.773
85789W        W77713  36.218  16.735  51.964
85790W        W77714  11.253  40.210  50.163
85791W        W77715  36.205   8.248  52.875
85792W        W77716   5.747  26.235  53.317
85793W        W77717  12.270  30.745  51.518
85794W        W77718  28.731   8.272  51.511
85795W        W77719  17.244  39.229  50.578
85796W        W77720  13.769   7.275  50.149
85797W        W77721  46.682   8.751  50.610
85798W        W77722  36.190  46.695  52.405
85799W        W77723  17.728  37.208  51.532
85800W        W77724  22.250  43.191  53.338
85801W        W77725   9.271  32.223  50.582
85802W        W77726   0.260  26.716  49.675
85803W        W77727  34.207  46.712  53.357
85804W        W77728  46.690  19.253  51.979
85805W        W77729  24.744  45.679  53.320
85806W        W77730  28.217  13.763  50.586
85807W        W77731  25.251  34.703  51.067
85808W        W77732  24.753  24.726  49.677
85809W        W77733  14.727   1.264  53.322
85810W        W77734  28.219  19.242  51.988
85811W        W77735  46.683   3.291  50.125
85812W        W77736  40.185  24.231  49.679
85813W        W77737  37.726   0.285  52.445
85814W        W77738  12.731  11.257  51.966
85815W        W77739  18.741   4.742  51.044
85816W        W77740  18.232  15.733  52.436
85817W        W77741  24.718  41.189  51.060
85818W        W77742  25.738   0.288  53.808
85819W        W77743  33.742  27.728  50.617
85820W        W77744  39.211   7.787  49.689
85821W        W77745  18.246  11.256  50.164
85822W        W77746   1.753  45.205  50.157
85823W        W77747  13.243  21.762  49.685
85824W        W77748  38.193  32.745  52.435
85825W        W77749  32.731  44.721  53.348
85826W        W77750  35.221  26.236  51.034
85827W        W77751  21.752  26.225  53.812
85828W        W77752  20.746  46.693  50.610
85829W        W77753  36.692   6.781  51.056
85830W        W77754  48.210  22.221  52.410
85831W        W77755  16.236   5.251  53.347
85832W        W77756  35.691  31.728  53.344
85833W        W77757  20.219  32.709  50.152
85834W        W77758  31.247  44.223  53.776
85835W        W77759  33.212  32.205  51.501
85836W        W77760  44.189  46.674  52.439
85837W        W77761  41.197   8.243  52.419
85838W        W77762  36.696  21.746  49.702
85839W        W77763  26.753   1.783  50.590
85840W        W77764  41.193  19.249  49.668
85841W        W77765  45.208  32.723  51.041
85842W        W77766  13.261   3.787  51.979
85843W        W77767   2.759  19.737  49.691
85844W        W77768   6.751  29.206  50.161
85845W        W77769   1.253   7.271  53.797
85846W        W77770  43.209  44.213  52.444
85847W        W77771  19.719  29.708  50.155
85848W        W77772  33.225  23.226  50.601
85849W        W77773  40.720  42.724  52.432
85850W        W77774  37.211  13.236  50.161
85851W        W77775  30.700  29.715  53.791
85852W        W77776  18.753  11.252  50.152
85853W        W77777   1.261  47.716  51.076
85854W        W77778  32.711  38.711  52.412
85855W        W77779   4.773   0.786  53.355
85856W        W77780  34.223  14.772  51.499
85857W        W77781   1.790  38.700  53.790
85858W        W77782   8.756  36.703  52.899
85859W        W77783  11.240  47.213  50.139
85860W        W77784  29.736  27.711  53.805
85861W        W77785  36.236  20.233  53.778
85862W        W77786  26.255  40.685  52.405
85863W        W77787  28.229  13.267  51.072
85864W        W77788  41.726  42.725  51.048
85865W        W77789  37.225  39.713  50.139
85866W        W77790  31.234   0.285  52.901
85867W        W77791  21.242  47.702  52.404
85868W        W77792  44.191  38.233  52.429
85869W        W77793  22.757  26.754  53.352
85870W        W77794  45.720   7.284  51.528
85871W        W77795  47.180   7.240  52.429
85872W        W77796  40.722  37.205  52.410
85873W        W77797   5.742  17.759  51.078
85874W        W77798   4.760   1.254  50.597
85875W        W77799   1.790  34.195  50.154
85876W        W77800   2.748  14.774  53.805
85877W        W77801  31.206   8.252  52.420
85878W        W77802  15.741   3.279  51.063
85879W        W77803  40.223   6.776  51.524
85880W        W77804  32.734  20.218  52.904
85881W        W77805  11.742  16.742  51.043
85882W        W77806  30.743  12.752  49.694
85883W        W77807   0.792  23.743  52.446
85884W        W77808  19.738   4.293  51.052
85885W        W77809  17.763  16.753  53.789
85886W        W77810  42.691  23.222  51.535
85887W        W77811  42.695  32.717  49.699
85888W        W77812  23.231  34.696  51.047
85889W        W77813  33.719   9.739  53.348
85890W        W77814  29.719  35.221  51.041
85891W        W77815  30.247  47.193  53.351
85892W        W77816  40.197  35.733  52.408
85893W        W77817  15.730  42.230  51.950
85894W        W77818  41.717  42.681  49.668
85895W        W77819  27.719  28.227  50.138
85896W        W77820   4.771  33.216  52.434
85897W        W77821  11.755  11.773  51.044
85898W        W77822  26.230  20.761  53.789
85899W        W77823  15.267  23.226  52.898
85900W        W77824  17.756  11.749  53.339
85901W        W77825  15.733  28.204  52.885
85902W        W77826  14.228  12.770  50.607
85903W        W77827  38.201  46.681  49.677
85904W        W77828  25.710  48.219  49.677
85905W        W77829  29.252  31.743  49.705
85906W        W77830  33.220  38.693  53.804
85907W        W77831  47.188   2.253  51.523
85908W        W77832  19.238  22.226  51.034
85909W        W77833  34.235  10.733  51.516
85910W        W77834  25.753   1.752  50.158
85911W        W77835  34.214  27.229  49.669
85912W        W77836   3.763  19.718  49.700
85913W        W77837  44.692   0.764  50.622
85914W        W77838   6.254   1.776  50.139
85915W        W77839  26.733   8.282  50.123
85916W        W77840  37.233  29.741  50.158
85917W        W77841   9.748  13.278  51.075
85918W        W77842  17.739  13.278  49.700
85919W        W77843  37.720  36.698  53.330
85920W        W77844  22.746  27.704  51.513
85921W        W77845  32.225  12.764  49.706
85922W        W77846  35.736  13.252  50.151
85923W        W77847  44.196   0.792  50.143
85924W        W77848  19.230   0.760  51.504
85925W        W77849   5.768  33.234  50.126
85926W        W77850  33.730  30.749  51.947
85927W        W77851  38.735  46.696  53.339
85928W        W77852  24.227  47.175  51.973
85929W        W77853  42.692  14.256  51.510
85930W        W77854   2.771  40.702  51.975
85931W        W77855   7.241  40.709  50.125
85932W        W77856  23.237  14.248  50.124
85933W        W77857  38.206   2.787  51.964
85934W        W77858   8.761  30.234  50.578
85935W        W77859  48.185   8.273  50.154
85936W        W77860   1.270  13.230  51.043
85937W        W77861  40.192  26.711  53.334
85938W        W77862   4.747  28.229  51.967
85939W        W77863   6.269  40.714  50.133
85940W        W77864  32.223  45.681  49.687
85941W        W77865  26.253   3.767  52.442
85942W        W77866   5.288  32.197  50.619
85943W        W77867  14.772  21.730  53.347
85944W        W77868  34.196  10.240  49.691
85945W        W77869  23.736   3.779  52.868
85946W        W77870  42.194  16.240  53.789
85947W        W77871  35.728  37.725  51.970
85948W        W77872  32.713   9.764  53.320
85949W        W77873   9.246  27.738  53.779
85950W        W77874  43.209  16.258  51.971
85951W        W77875  36.228   9.778  50.614
85952W        W77876  13.773  39.734  53.807
85953W        W77877  32.238  42.209  49.680
85954W        W77878  18.760   2.271  51.992
85955W        W77879   4.750   9.760  50.126
85956W        W77880  20.227   5.777  50.618
85957W        W77881  19.750  43.204  51.949
85958W        W77882  21.720  41.206  51.037
85959W        W77883  38.711   8.772  51.979
85960W        W77884  48.201   1.251  53.322
85961W        W77885  19.267  42.689  51.512
85962W        W77886  15.235  38.218  51.985
85963W        W77887   7.249  18.258  49.695
85964W        W77888   4.248  30.736  49.709
85965W        W77889   4.754   8.759  51.961
85966W        W77890  48.184  26.246  51.052
85967W        W77891  20.233  45.204  50.603
85968W        W77892  34.705  11.760  51.955
85969W        W77893  40.209  27.209  50.598
85970W        W77894  28.718  12.239  53.341
85971W        W77895   6.251   4.267  51.054
85972W        W77896  30.210   3.772  52.894
85973W        W77897  41.692  45.206  49.671
85974W        W77898  38.733  23.738  49.692
85975W        W77899  21.246  23.728  52.438
85976W        W77900  44.210   9.237  50.147
85977W        W77901  45.176  39.686  50.140
85978W        W77902  20.744  25.215  51.499
85979W        W77903  22.732   4.767  50.609
85980W        W77904  48.205  19.755  51.947
85981W        W77905   1.754  36.209  53.352
85982W        W77906  39.688  47.672  50.149
85983W        W77907   9.267  39.702  51.980
85984W        W77908   0.287   5.785  51.964
85985W        W77909  32.239  23.245  53.353
85986W        W77910   7.260  11.760  50.581
85987W        W77911  19.743  13.777  51.045
85988W        W77912   9.244  14.265  51.521
85989W        W77913  27.223  29.734  53.329
85990W        W77914  24.756  19.257  52.864
85991W        W77915  35.731  20.228  49.683
85992W        W77916  40.713  39.733  49.668
85993W        W77917  16.241  44.677  51.532
85994W        W77918  23.740  19.758  51.496
85995W        W77919  45.682  29.235  51.987
85996W        W77920  17.268  10.768  50.606
85997W        W77921  18.722  21.228  50.606
85998W        W77922  17.261  14.746  50.601
85999W        W77923   7.776  34.708  49.670
86000W        W77924   8.785  47.207  52.883
86001W        W77925  28.724  43.208  52.873
86002W        W77926  13.254  39.194  52.895
86003W        W77927  39.690  19.242  51.986
86004W        W77928  46.216   8.281  51.530
86005W        W77929  19.727  15.262  50.123
86006W        W77930  32.227  25.241  50.608
86007W        W77931  26.729  32.232  52.874
86008W        W77932   7.760   4.286  51.970
86009W        W77933  45.204  47.706  53.355
86010W        W77934   4.742  27.244  51.513
86011W        W77935   8.779  14.727  50.599
86012W        W77936  44.210  44.219  49.695
86013W        W77937  44.203  19.765  53.348
86014W        W77938  39.207  33.234  52.444
86015W        W77939  43.707  11.238  51.961
86016W        W77940  41.713   2.263  53.360
86017W        W77941  32.242  43.221  52.432
86018W        W77942  16.723  38.722  53.795
86019W        W77943   6.282  30.211  52.444
86020W        W77944  48.217  33.230  51.066
86021W        W77945  38.194  35.706  49.693
86022W        W77946  27.726  24.750  50.142
86023W        W77947  38.724   6.252  51.043
86024W        W77948  10.258  30.241  50.598
86025W        W77949   7.754  31.234  52.889
86026W        W77950   1.756   6.755  53.323
86027W        W77951  32.226  45.185  53.356
86028W        W77952  18.253  15.740  50.162
86029W        W77953  30.721  19.758  49.690
86030W        W77954  37.705  18.258  50.159
86031W        W77955  16.724  19.767  50.123
86032W        W77956  13.242  36.712  51.055
86033W        W77957  45.176  28.712  49.689
86034W        W77958  34.224  30.732  52.880
86035W        W77959  42.712  19.721  53.346
86036W        W77960  31.740   4.275  53.783
86037W        W77961   5.749   4.760  51.058
86038W        W77962   4.246  47.207  51.065
86039W        W77963  41.184  45.204  49.683
86040W        W77964  40.711  28.228  51.965
86041W        W77965  25.748  26.718  52.902
86042W        W77966  31.709  12.737  51.966
86043W        W77967  17.252  26.738  50.618
86044W        W77968   4.746  15.232  49.677
86045W        W77969  11.251  39.726  51.046
86046W        W77970  24.720  28.745  52.901
86047W        W77971  35.221  31.227  53.322
86048W        W77972  32.237  10.272  49.681
86049W        W77973  35.220  47.707  51.527
86050W        W77974  29.731   0.292  50.617
86051W        W77975  16.752   9.245  52.429
86052W        W77976  18.755  38.207  53.812
86053W        W77977  43.183  33.696  50.158
86054W        W77978  33.197   8.271  52.900
86055W        W77979   1.778  29.720  51.517
86056W        W77980  13.776  16.760  49.690
86057W        W77981  42.205  10.254  53.354
86058W        W77982   5.786   1.292  49.693
86059W        W77983  43.700  46.194  53.361
86060W        W77984  15.746  38.214  50.141
86061W        W77985   5.284  33.732  49.679
86062W        W77986   0.263  39.710  52.904
86063W        W77987  33.225  25.752  52.876
86064W        W77988  27.752  25.233  53.808
86065W        W77989  29.233  10.740  49.698
86066W        W77990  17.740  29.750  49.689
86067W        W77991  16.734  14.274  52.408
86068W        W77992  11.273  45.682  53.324
86069W        W77993   4.791   2.786  52.898
86070W        W77994  24.753   3.284  51.049
86071W        W77995  21.758  44.223  50.165
86072W        W77996  19.760  16.754  49.699
86073W        W77997  14.239  22.217  52.867
86074W        W77998  30.701  16.269  53.792
86075W        W77999  41.199   7.277  51.500
86076W        W78000  14.256  10.761  50.608
86077W        W78001  17.267   8.747  49.695
86078W        W78002  40.717  15.740  51.967
86079W        W78003   5.780  16.224  53.361
86080W        W78004  38.194  14.761  53.356
86081W        W78005   1.277  42.712  53.804
86082W        W78006  41.700  42.198  52.873
86083W        W78007  10.780  20.242  50.137
86084W        W78008  48.198  43.209  50.607
86085W        W78009  10.751  11.256  53.781
86086W        W78010  40.199   0.260  51.504
86087W        W78011  44.723  42.185  52.430
86088W        W78012  42.209  21.752  51.991
86089W        W78013  22.257  39.702  53.349
86090W        W78014  36.698  11.753  53.351
86091W        W78015  33.743  19.759  53.802
86092W        W78016  29.219   3.279  52.876
86093W        W78017  32.235  31.718  51.514
86094W        W78018  16.760  13.776  53.810
86095W        W78019   1.272   6.789  50.599
86096W        W78020  48.220  35.196  52.863
86097W        W78021  12.241   4.784  51.492
86098W        W78022   5.759  29.220  52.892
86099W        W78023  15.733  41.726  52.869
86100W        W78024   5.291  24.216  50.160
86101W        W78025  10.755  34.200  53.795
86102W        W78026  48.173  12.278  50.161
86103W        W78027  45.678  10.776  51.066
86104W        W78028  18.766  17.234  50.134
86105W        W78029   7.283  30.244  51.069
86106W        W78030  19.258  10.736  53.357
86107W        W78031  21.234   0.770  50.617
86108W        W78032  23.757  34.694  53.345
86109W        W78033  12.253  24.748  52.426
86110W        W78034  28.246  33.233  51.966
86111W        W78035   6.286  32.699  50.618
86112W        W78036  17.762   9.770  52.410
86113W        W78037   2.763  35.726  53.359
86114W        W78038  13.747  35.739  51.947
86115W        W78039  31.712  33.733  50.132
86116W        W78040  35.222   1.762  51.522
86117W        W78041  30.737  12.756  51.502
86118W        W78042  39.730   1.267  50.121
86119W        W78043  15.739  31.241  49.696
86120W        W78044  22.722  36.739  51.976
86121W        W78045   7.762  34.206  51.043
86122W        W78046  35.199  15.235  52.862
86123W        W78047  40.199   0.766  50.125
86124W        W78048  32.240  31.231  50.156
86125W        W78049  36.709  38.207  51.983
86126W        W78050  19.242   5.253  53.332
86127W        W78051  30.231  41.705  50.162
86128W        W78052  33.213  14.728  49.670
86129W        W78053   5.772  40.202  51.507
86130W        W78054  25.737  47.682  50.160
86131W        W78055  24.220  28.253  51.050
86132W        W78056  45.694  46.684  50.140
86133W        W78057  15.734   9.257  51.529
86134W        W78058  17.767  15.252  51.531
86135W        W78059  25.757  11.281  53.802
86136W        W78060   9.242  21.236  52.862
86137W        W78061   6.260  34.202  52.863
86138W        W78062  14.256  38.734  52.405
86139W        W78063  21.726  30.211  49.706
86140W        W78064  43.187  32.741  53.331
86141W        W78065   2.278  15.773  51.982
86142W        W78066  10.757  37.693  51.502
86143W        W78067  23.231  21.244  51.077
86144W        W78068  25.234  46.715  50.155
86145W        W78069  48.200  14.236  53.775
86146W        W78070  38.719   3.748  49.702
86147W        W78071  46.198  12.234  51.048
86148W        W78072  10.256  11.770  50.608
86149W        W78073   4.765  40.684  52.864
86150W        W78074  41.726   3.767  51.500
86151W        W78075  32.206  15.271  53.803
86152W        W78076  41.218  37.703  50.612
86153W        W78077  24.754  47.212  51.520
86154W        W78078  46.178  22.233  50.140
86155W        W78079  24.725  16.744  51.973
86156W        W78080  19.267  38.207  50.609
86157W        W78081  32.718  38.694  49.709
86158W        W78082  22.223  17.762  51.043
86159W        W78083  28.751  42.729  50.589
86160W        W78084   2.777   6.746  51.520
86161W        W78085   4.282  26.734  53.334
86162W        W78086  37.201   6.244  52.885
86163W        W78087  45.680  33.701  52.901
86164W        W78088  46.692  24.717  52.426
86165W        W78089  19.746  43.686  50.607
86166W        W78090   3.269  29.739  52.902
86167W        W78091   9.776  29.228  51.497
86168W        W78092  20.238  11.249  51.949
86169W        W78093  20.721  17.262  51.041
86170W        W78094  16.733  27.735  51.526
86171W        W78095   4.748  15.229  51.982
86172W        W78096  33.203  46.709  51.513
86173W        W78097  12.269  32.734  49.675
86174W        W78098  43.192  30.242  49.677
86175W        W78099  41.723  12.255  50.153
86176W        W78100  35.204  26.216  51.961
86177W        W78101  35.720  21.227  51.964
86178W        W78102  40.694  46.196  53.804
86179W        W78103   7.248  20.750  53.777
86180W        W78104  25.241  34.693  49.684
86181W        W78105  11.254  24.758  50.608
86182W        W78106  18.228  46.188  51.059
86183W        W78107  13.250   0.296  49.677
86184W        W78108  37.726   5.285  53.349
86185W        W78109  14.741   2.274  51.050
86186W        W78110  33.222  32.246  53.319
86187W        W78111  22.757   0.266  53.778
86188W        W78112  25.232   1.253  50.159
86189W        W78113  36.204  13.232  53.816
86190W        W78114  10.773  10.240  51.527
86191W        W78115  33.238  42.700  51.515
86192W        W78116  12.740   4.255  50.587
86193W        W78117  38.706   6.742  49.679
86194W        W78118  24.215  42.227  51.515
86195W        W78119  33.210  46.695  53.358
86196W        W78120  26.729  11.778  53.799
86197W        W78121  36.737  26.747  51.968
86198W        W78122   9.276   6.287  50.588
86199W        W78123  46.199   6.261  53.356
86200W        W78124  10.255   9.240  51.061
86201W        W78125  24.741  31.706  51.986
86202W        W78126  35.220  34.734  52.435
86203W        W78127  14.761  39.708  52.895
86204W        W78128  13.232  41.184  52.412
86205W        W78129   1.268  14.236  51.523
86206W        W78130  16.262  47.707  49.682
86207W        W78131  38.715  40.232  53.804
86208W        W78132  34.703  10.245  53.796
86209W        W78133   9.776  38.189  53.347
86210W        W78134  25.725  41.696  53.780
86211W        W78135   6.739  39.707  49.675
86212W        W78136  36.216  36.732  51.956
86213W        W78137  23.236   6.257  49.682
86214W        W78138  38.706   5.772  53.355
86215W        W78139   4.251  12.249  51.991
86216W        W78140  39.714  11.259  51.048
86217W        W78141  29.251  44.682  53.359
86218W        W78142  28.744   4.253  52.882
86219W        W78143  27.725  45.207  52.900
86220W        W78144  16.272  14.230  52.887
86221W        W78145  33.218  36.201  50.134
86222W        W78146   5.774  14.754  49.703
86223W        W78147  32.703  21.217  51.974
86224W        W78148  42.704  43.223  51.523
86225W        W78149   3.273  20.251  50.611
86226W        W78150  17.258  15.766  51.057
86227W        W78151  44.722  46.686  49.666
86228W        W78152  15.757   8.246  53.775
86229W        W78153   9.741  24.718  52.417
86230W        W78154  15.246  30.709  51.503
86231W        W78155  42.721  41.212  51.992
86232W        W78156   4.284   0.272  53.787
86233W        W78157  15.231  20.230  50.144
86234W        W78158  17.721  37.707  50.577
86235W        W78159  39.694  26.230  51.979
86236W        W78160  22.249  33.209  50.139
86237W        W78161  20.242  25.755  50.135
86238W        W78162  46.678  37.725  53.347
86239W        W78163  42.182  48.173  50.157
86240W        W78164  24.252   2.767  51.530
86241W        W78165  46.720  44.180  52.893
86242W        W78166  32.232  38.733  51.980
86243W        W78167  38.697  13.231  51.526
86244W        W78168  39.200   2.295  51.978
86245W        W78169  40.701  38.223  51.505
86246W        W78170   2.291  41.206  51.987
86247W        W78171  22.751  47.689  53.776
86248W        W78172  23.728  19.227  51.048
86249W        W78173  35.710  25.728  52.888
86250W        W78174  29.212  36.716  50.603
86251W        W78175  48.203  10.251  52.432
86252W        W78176   2.296  33.203  51.042
86253W        W78177  21.730  10.780  50.588
86254W        W78178  47.201  30.707  51.983
86255W        W78179  45.699  18.720  51.049
86256W        W78180  38.720  29.231  52.412
86257W        W78181  13.752   4.758  51.984
86258W        W78182  15.767  42.215  51.525
86259W        W78183  21.217  38.705  49.677
86260W        W78184  26.226   2.279  52.875
86261W        W78185  38.734  21.762  51.045
86262W        W78186  40.731   8.744  51.495
86263W        W78187  23.249   5.255  51.973
86264W        W78188  32.231  38.718  50.589
86265W        W78189  11.750  14.761  52.866
86266W        W78190  13.245  37.229  50.612
86267W        W78191   6.278   7.762  52.426
86268W        W78192  45.219  31.729  53.773
86269W        W78193  15.747  16.759  53.332
86270W        W78194  12.262  30.746  53.810
86271W        W78195   9.771   3.280  51.070
86272W        W78196  24.732  44.190  53.807
86273W        W78197  22.217  42.213  50.621
86274W        W78198  21.261   5.754  50.133
86275W        W78199  36.223  28.239  53.781
86276W        W78200  26.730  48.185  51.044
86277W        W78201   7.249  35.230  53.346
86278W        W78202  24.243  31.721  53.815
86279W        W78203  35.213  22.747  52.424
86280W        W78204  24.245  15.260  52.866
86281W        W78205  40.728  40.683  50.146
86282W        W78206  21.246  10.778  51.049
86283W        W78207  32.203  29.713  51.530
86284W        W78208  44.178  21.248  51.511
86285W        W78209  10.752  23.744  53.343
86286W        W78210  39.713  14.229  51.978
86287W        W78211  28.721  23.760  50.591
86288W        W78212  17.757  33.221  50.601
86289W        W78213  11.280  47.705  49.684
86290W        W78214  44.205  14.748  52.444
86291W        W78215  47.221  33.721  51.963
86292W        W78216  45.184  11.757  53.351
86293W        W78217  20.747  33.707  53.778
86294W        W78218  44.705   3.783  50.140
86295W        W78219   9.256  32.718  53.322
86296W        W78220   8.261  32.698  51.042
86297W        W78221  32.740  21.228  52.887
86298W        W78222  12.269  38.697  51.505
86299W        W78223   5.289  43.220  53.799
86300W        W78224  17.256  12.740  51.043
86301W        W78225  18.746  17.763  50.595
86302W        W78226  28.243  33.739  52.406
86303W        W78227  28.216  47.183  51.511
86304W        W78228  14.250  17.759  51.526
86305W        W78229  46.701  23.742  51.961
86306W        W78230  48.206  46.690  53.348
86307W        W78231  26.722  37.237  53.790
86308W        W78232   4.265  17.257  53.353
86309W        W78233  19.721  45.719  53.774
86310W        W78234  37.699  44.704  51.992
86311W        W78235   5.242  12.262  51.042
86312W        W78236  31.725  45.202  51.961
86313W        W78237  44.708  46.193  50.134
86314W        W78238  22.254  38.696  53.332
86315W        W78239  37.192  13.753  52.423
86316W        W78240  44.694  30.203  51.976
86317W        W78241  36.731  47.185  49.698
86318W        W78242  22.737   3.254  51.034
86319W        W78243  15.725  13.256  51.068
86320W        W78244   3.282   4.289  53.794
86321W        W78245  12.766   9.750  51.979
86322W        W78246  43.721  29.242  51.956
86323W        W78247  44.718  16.228  51.516
86324W        W78248  20.223  11.775  51.079
86325W        W78249  28.247  37.718  51.989
86326W        W78250  45.176  25.248  49.676
86327W        W78251  15.246  38.192  50.591
86328W        W78252  39.693  35.691  52.881
86329W        W78253  29.227  26.731  51.046
86330W        W78254   6.275  42.196  51.501
86331W        W78255  11.280   2.768  50.145
86332W        W78256  30.728  31.216  53.773
86333W        W78257  12.736  31.724  53.812
86334W        W78258  12.238  34.733  49.667
86335W        W78259   2.279   1.277  53.801
86336W        W78260  48.176  44.204  52.445
86337W        W78261  40.687  11.731  51.958
86338W        W78262  22.742  18.247  52.874
86339W        W78263   2.763  40.207  49.670
86340W        W78264  13.759   9.760  51.985
86341W        W78265  45.707  29.735  50.590
86342W        W78266  25.221  37.700  52.882
86343W        W78267   9.777  13.738  53.788
86344W        W78268   8.252  29.750  53.325
86345W        W78269  43.698  32.213  53.816
86346W        W78270  10.241  36.700  51.988
86347W        W78271   3.784  14.268  53.816
86348W        W78272  27.239  17.742  51.990
86349W        W78273   2.270  42.219  53.357
86350W        W78274  16.737  39.703  52.869
86351W        W78275  35.698  18.752  50.609
86352W        W78276  44.696   3.273  53.344
86353W        W78277   8.765   2.275  49.670
86354W        W78278  27.231   6.274  51.057
86355W        W78279  14.754  29.723  51.500
86356W        W78280  36.235  20.758  51.067
86357W        W78281  32.238  32.203  52.893
86358W        W78282  13.252  15.228  52.881
86359W        W78283  15.227  11.233  50.584
86360W        W78284  44.711   7.262  53.324
86361W        W78285   4.247  24.719  49.675
86362W        W78286  28.239  13.228  53.337
86363W        W78287  18.249  35.695  52.878
86364W        W78288   0.257  22.761  53.318
86365W        W78289  11.741  42.223  53.800
86366W        W78290   4.750  34.229  51.063
86367W        W78291  38.724  14.262  50.124
86368W        W78292  13.266  45.208  51.990
86369W        W78293  41.207  41.200  53.799
86370W        W78294  24.756  15.727  52.434
86371W        W78295  43.717   9.282  50.603
86372W        W78296   9.246  46.716  51.977
86373W        W78297  15.256  18.266  51.493
86374W        W78298  43.722  47.720  53.349
86375W        W78299  24.709  13.248  49.706
86376W        W78300   3.251  33.694  52.892
86377W        W78301  17.229  27.712  52.882
86378W        W78302  37.211   7.758  50.158
86379W        W78303  44.216  46.202  49.696
86380W        W78304  38.200  42.701  50.166
86381W        W78305   9.762  12.744  50.602
86382W        W78306  17.723  38.724  52.876
86383W        W78307  39.709  14.729  50.159
86384W        W78308  11.755  38.696  49.700
86385W        W78309  42.227  48.220  53.810
86386W        W78310  26.723  38.201  52.874
86387W        W78311   6.277  45.187  49.698
86388W        W78312  33.223   8.241  53.348
86389W        W78313  41.686  32.237  53.807
86390W        W78314  16.758  21.218  50.596
86391W        W78315  39.225  38.735  50.142
86392W        W78316   7.784  30.734  51.052
86393W        W78317  28.703  17.733  51.073
86394W        W78318  34.210  21.732  53.345
86395W        W78319  48.188  23.227  52.897
86396W        W78320  40.198  36.217  53.336
86397W        W78321  13.250   6.779  51.049
86398W        W78322  10.266  44.224  49.679
86399W        W78323  31.720  39.190  50.616
86400W        W78324  27.219  21.732  52.408
86401W        W78325  10.761   5.253  50.160
86402W        W78326  37.708  21.750  49.689
86403W        W78327  38.726  43.698  51.076
86404W        W78328  16.240   2.775  52.893
86405W        W78329  42.194  32.707  51.495
86406W        W78330  13.773  20.758  52.432
86407W        W78331   7.763  44.198  50.138
86408W        W78332  37.219   8.777  52.424
86409W        W78333  28.235  37.732  53.795
86410W        W78334  33.737  15.743  53.356
86411W        W78335  39.220  12.764  50.141
86412W        W78336   1.277  42.718  50.151
86413W        W78337  31.245  19.747  49.709
86414W        W78338   8.286  27.718  53.785
86415W        W78339  42.681   5.752  52.410
86416W        W78340  25.736  24.755  53.318
86417W        W78341  25.248  16.264  53.779
86418W        W78342  16.732  23.751  53.801
86419W        W78343  43.189  32.738  50.160
86420W        W78344  10.268  45.194  51.529
86421W        W78345  25.234   1.288  51.535
86422W        W78346  30.742  31.237  51.060
86423W        W78347  33.198   0.252  51.501
86424W        W78348   7.281   9.269  51.065
86425W        W78349  45.705  18.227  50.595
86426W        W78350   9.250  19.246  50.620
86427W        W78351  25.720  11.276  50.128
86428W        W78352  37.227  15.748  50.605
86429W        W78353  12.240  15.264  51.069
86430W        W78354  43.716  10.760  49.705
86431W        W78355  34.715  48.205  49.708
86432W        W78356  17.252  18.244  49.674
86433W        W78357  40.204   4.255  50.121
86434W        W78358  28.233  22.255  51.507
86435W        W78359  46.721  19.760  49.671
86436W        W78360  13.737  17.742  51.496
86437W        W78361  22.761  27.745  51.968
86438W        W78362  30.725   5.276  50.145
86439W        W78363  29.720  14.238  51.041
86440W        W78364  39.701  26.747  53.803
86441W        W78365  10.273   9.254  53.794
86442W        W78366   5.261   9.274  50.128
86443W        W78367  11.758  12.278  50.124
86444W        W78368   0.797  43.196  52.417
86445W        W78369  14.741  22.233  53.356
86446W        W78370  40.697   9.242  53.343
86447W        W78371  23.714  10.237  51.053
86448W        W78372  43.700  25.751  51.949
86449W        W78373  29.731   5.242  51.048
86450W        W78374  41.191  30.717  52.884
86451W        W78375  19.224  32.202  51.523
86452W        W78376  38.722  46.678  51.041
86453W        W78377  37.695   4.782  51.073
86454W        W78378  45.213  39.200  51.065
86455W        W78379   7.239   1.278  49.689
86456W        W78380  23.248  34.205  53.354
86457W        W78381  28.710  37.697  52.864
86458W        W78382   2.284   9.256  49.681
86459W        W78383  41.189  29.743  51.521
86460W        W78384  29.218  19.724  50.124
86461W        W78385  43.204  17.736  51.056
86462W        W78386  41.209  20.743  53.347
86463W        W78387  34.204  28.208  51.979
86464W        W78388  30.738  20.239  50.594
86465W        W78389  47.680  33.724  50.621
86466W        W78390   6.268   3.771  53.809
86467W        W78391   2.274   9.743  53.781
86468W        W78392   8.751  22.258  51.510
86469W        W78393  38.724   2.755  50.613
86470W        W78394  29.242  45.187  51.067
86471W        W78395  27.215  13.735  50.605
86472W        W78396  31.703  29.203  53.782
86473W        W78397  13.235   7.776  51.967
86474W        W78398  25.232  37.714  51.972
86475W        W78399  29.244  25.735  53.807
86476W        W78400  21.227  44.208  50.618
86477W        W78401  12.237  45.684  50.591
86478W        W78402  34.708   4.781  51.043
86479W        W78403  26.252  16.770  51.074
86480W        W78404  10.234  15.764  52.892
86481W        W78405   7.242  14.244  49.679
86482W        W78406   4.244   8.777  51.037
86483W        W78407  40.217  38.722  51.054
86484W        W78408  25.719  41.726  51.521
86485W        W78409  27.738   9.751  52.420
86486W        W78410  15.244   2.269  53.316
86487W        W78411   3.745  45.216  52.421
86488W        W78412  10.280  33.705  50.585
86489W        W78413   7.751  44.679  51.956
86490W        W78414  11.731  35.725  53.780
86491W        W78415  37.711  13.751  52.421
86492W        W78416  42.689  45.710  50.582
86493W        W78417  23.744  30.236  51.948
86494W        W78418  34.223   8.286  52.874
86495W        W78419  18.728  17.246  51.076
86496W        W78420   9.270  33.222  53.348
86497W        W78421  28.241  15.765  49.700
86498W        W78422  46.710  27.209  50.620
86499W        W78423  38.236  42.225  52.423
86500W        W78424  37.235   3.780  51.962
86501W        W78425  30.730  26.750  51.959
86502W        W78426  22.237  24.251  50.596
86503W        W78427  26.227  14.272  51.984
86504W        W78428   0.251   1.783  52.869
86505W        W78429  19.266  39.202  53.336
86506W        W78430  39.206  18.732  52.425
86507W        W78431   5.287  19.731  53.344
86508W        W78432  45.177  30.733  49.683
86509W        W78433  32.710  32.210  50.129
86510W        W78434  12.734  48.182  52.869
86511W        W78435  35.201  37.701  53.333
86512W        W78436  34.697   6.265  53.332
86513W        W78437  41.188  26.718  52.901
86514W        W78438  47.687  34.699  53.329
86515W        W78439  43.688  20.232  51.502
86516W        W78440  19.732  27.708  52.879
86517W        W78441  12.763  46.181  50.603
86518W        W78442  33.210  44.700  49.699
86519W        W78443  36.222  40.192  50.156
86520W        W78444  42.220  26.214  50.162
86521W        W78445  29.221   3.262  51.498
86522W        W78446  19.239   6.770  49.666
86523W        W78447   4.767  23.225  51.948
86524W        W78448  46.203  40.726  51.970
86525W        W78449  11.241  44.712  51.492
86526W        W78450  21.234  18.243  50.125
86527W        W78451  27.244   5.763  51.516
86528W        W78452   1.759  11.732  52.864
86529W        W78453  20.226  27.237  52.431
86530W        W78454  13.764  29.207  53.796
86531W        W78455   4.279   5.746  51.955
86532W        W78456  13.739  25.746  50.581
86533W        W78457  36.236  32.243  49.702
86534W        W78458  14.248  23.213  52.410
86535W        W78459  12.759  12.752  51.507
86536W        W78460  32.230   6.772  53.328
86537W        W78461  29.218  44.225  50.593
86538W        W78462  45.187  18.230  51.517
86539W        W78463  22.260   2.248  50.594
86540W        W78464   7.744   0.784  52.869
86541W        W78465  17.759  23.251  50.593
86542W        W78466  46.717  25.244  52.404
86543W        W78467  12.758  18.725  51.966
86544W        W78468  26.743  14.775  51.974
86545W        W78469  44.200  32.236  50.604
86546W        W78470   8.239   7.756  51.065
86547W        W78471  11.270  36.193  52.419
86548W        W78472   4.266  24.254  51.516
86549W        W78473  42.719  19.267  53.351
86550W        W78474   8.261   1.287  51.047
86551W        W78475  20.749  12.741  52.405
86552W        W78476   3.782  45.197  53.814
86553W        W78477  34.228  35.724  51.535
86554W        W78478  39.712  24.750  51.052
86555W        W78479   1.254  24.235  51.046
86556W        W78480  29.739   1.288  51.495
86557W        W78481   0.772  35.722  50.583
86558W        W78482  31.214  14.235  52.436
86559W        W78483  14.260  37.193  49.708
86560W        W78484  12.245  37.192  52.409
86561W        W78485  39.204  27.242  53.814
86562W        W78486  38.730  26.733  53.357
86563W        W78487   9.278   4.754  50.606
86564W        W78488   8.277  17.743  50.150
86565W        W78489   2.291  11.760  49.706
86566W        W78490  36.736  39.722  52.896
86567W        W78491   3.282  39.231  52.898
86568W        W78492  14.730  45.198  50.586
86569W        W78493   9.740  27.706  49.699
86570W        W78494   5.265  41.682  51.960
86571W        W78495   2.782  48.210  50.142
86572W        W78496  40.214  20.734  51.526
86573W        W78497  22.754  34.222  51.508
86574W        W78498  47.719  35.717  53.337
86575W        W78499  39.192  27.206  52.871
86576W        W78500  24.727  41.729  51.980
86577W        W78501  10.244  19.251  53.357
86578W        W78502  11.745  25.725  53.351
86579W        W78503  35.725  15.773  50.590
86580W        W78504  39.724  34.706  53.793
86581W        W78505  27.211  22.714  53.331
86582W        W78506  48.186  20.742  51.053
86583W        W78507   3.791  31.245  51.506
86584W        W78508  15.740  26.709  51.530
86585W        W78509  34.243  21.750  52.445
86586W        W78510   4.752  38.205  51.522
86587W        W78511   1.249  23.728  53.772
86588W        W78512  14.233  13.275  53.800
86589W        W78513  18.262  25.231  50.596
86590W        W78514  42.695  27.218  53.322
86591W        W78515  23.240  44.714  51.048
86592W        W78516   0.283  26.255  51.974
86593W        W78517  31.747  38.706  51.965
86594W        W78518  14.755  10.775  51.532
86595W        W78519  37.236  16.766  53.327
86596W        W78520  15.761   4.264  51.077
86597W        W78521  19.756   7.284  52.437
86598W        W78522  22.232  42.722  51.977
86599W        W78523  32.703   7.745  51.076
86600W        W78524  46.704   9.248  50.617
86601W        W78525  22.215  20.219  52.887
86602W        W78526  19.735  38.703  51.490
86603W        W78527   0.297  21.253  50.126
86604W        W78528  22.750   4.759  51.983
86605W        W78529   3.293  13.277  51.515
86606W        W78530   1.255  24.747  53.355
86607W        W78531  26.717  30.203  51.507
86608W        W78532  20.751  27.731  51.505
86609W        W78533  33.213  41.698  50.142
86610W        W78534   0.751  25.723  51.951
86611W        W78535  20.252   9.277  53.795
86612W        W78536  45.701  25.739  53.319
86613W        W78537   9.280   8.268  49.699
86614W        W78538   2.793  20.747  52.443
86615W        W78539  25.724  47.199  52.860
86616W        W78540   5.259  21.761  51.963
86617W        W78541   4.764   9.244  51.522
86618W        W78542  10.782  27.738  50.593
86619W        W78543   2.255  24.257  52.904
86620W        W78544  15.757   0.269  50.605
86621W        W78545  38.730  32.203  53.779
86622W        W78546   2.774  24.214  49.668
86623W        W78547  13.270  39.730  52.863
86624W        W78548  44.197  34.195  53.335
86625W        W78549   0.291  39.687  51.532
86626W        W78550  34.724  31.713  53.321
86627W        W78551  35.702  22.218  49.681
86628W        W78552  23.758   1.255  51.500
86629W        W78553  32.731  36.235  51.984
86630W        W78554  19.252  25.257  52.414
86631W        W78555  29.204   7.262  53.797
86632W        W78556  40.192  41.730  51.963
86633W        W78557  26.755  28.745  50.154
86634W        W78558  39.717  33.698  50.619
86635W        W78559  13.228  44.725  51.517
86636W        W78560   4.745   9.250  49.670
86637W        W78561  39.206  16.256  50.606
86638W        W78562  16.236   9.237  53.794
86639W        W78563  17.766  17.721  53.321
86640W        W78564  18.730  30.207  50.161
86641W        W78565  21.252  42.215  51.534
86642W        W78566  31.216  21.749  51.518
86643W        W78567  14.761  11.265  51.053
86644W        W78568  43.682   3.281  52.886
86645W        W78569  10.762  16.233  53.776
86646W        W78570   5.278  10.233  52.443
86647W        W78571  33.729  27.223  53.316
86648W        W78572   3.786  11.758  49.673
86649W        W78573  16.232  46.201  51.055
86650W        W78574  31.206  14.737  51.984
86651W        W78575  27.717  25.749  51.956
86652W        W78576  36.214  44.226  53.355
86653W        W78577  21.250  44.189  53.341
86654W        W78578   4.247   5.265  52.867
86655W        W78579   8.743   3.750  49.673
86656W        W78580  42.681  16.244  53.788
86657W        W78581   3.762  26.231  53.806
86658W        W78582   3.772  14.773  53.801
86659W        W78583  38.708   3.246  49.678
86660W        W78584  33.209   0.772  49.695
86661W        W78585   7.251   3.284  50.600
86662W        W78586  10.259  19.220  50.130
86663W        W78587  14.729   3.287  53.783
86664W        W78588  41.222  14.728  49.704
86665W        W78589  30.730  30.203  49.692
86666W        W78590  36.712   6.757  53.354
86667W        W78591  37.713  40.688  52.867
86668W        W78592  33.233  41.683  52.860
86669W        W78593  13.772  15.730  49.706
86670W        W78594   4.775  32.214  50.156
86671W        W78595   4.281   4.763  52.437
86672W        W78596   7.250  41.209  53.341
86673W        W78597   3.751  43.726  51.493
86674W        W78598  27.237  35.242  51.496
86675W        W78599  20.260  33.707  52.403
86676W        W78600   2.773  24.215  52.872
86677W        W78601  31.725   2.270  52.430
86678W        W78602  43.689  16.269  50.126
86679W        W78603  36.236  43.206  51.953
86680W        W78604  42.687  18.763  51.955
86681W        W78605  45.202  11.255  53.811
86682W        W78606  32.700   9.779  52.412
86683W        W78607   5.753   4.286  50.580
86684W        W78608  21.245  10.767  53.324
86685W        W78609  33.233  20.218  51.065
86686W        W78610  40.706   3.760  53.809
86687W        W78611  36.696  22.717  51.531
86688W        W78612  33.210  31.716  51.525
86689W        W78613  45.213  12.260  50.137
86690W        W78614  10.263  34.226  53.346
86691W        W78615  34.734  23.735  52.872
86692W        W78616  44.212  26.242  51.980
86693W        W78617   1.288  27.210  49.707
86694W        W78618  15.247  43.181  50.128
86695W        W78619  24.757  44.690  50.163
86696W        W78620  24.220  17.737  53.328
86697W        W78621  30.246  47.196  52.442
86698W        W78622  41.190  33.215  49.695
86699W        W78623  25.755   6.784  51.515
86700W        W78624  30.207  35.217  51.047
86701W        W78625  41.228  35.216  51.049
86702W        W78626  23.718  22.262  53.316
86703W        W78627   1.257   8.241  52.862
86704W        W78628   3.289   2.779  50.124
86705W        W78629  44.196  15.239  50.133
86706W        W78630  18.722  46.202  49.675
86707W        W78631  25.248  26.241  53.799
86708W        W78632  44.706  19.758  53.323
86709W        W78633  18.222  26.754  51.988
86710W        W78634   7.782  39.188  52.434
86711W        W78635   3.293  16.734  52.409
86712W        W78636  13.253   8.241  51.984
86713W        W78637   3.259  38.726  53.329
86714W        W78638  22.234  26.711  53.327
86715W        W78639  14.260   9.738  52.877
86716W        W78640  43.199  32.232  50.165
86717W        W78641  48.212  14.771  52.867
86718W        W78642  25.249  35.730  51.045
86719W        W78643  43.702  12.267  50.140
86720W        W78644   9.246   2.764  52.860
86721W        W78645   9.283   6.241  52.869
86722W        W78646  46.210   1.780  53.786
86723W        W78647  38.234  18.255  53.329
86724W        W78648  24.246  33.203  53.335
86725W        W78649  24.715  26.248  52.896
86726W        W78650  22.258  22.716  51.061
86727W        W78651   9.265  23.223  50.604
86728W        W78652  15.732  41.191  51.529
86729W        W78653  45.708  14.728  50.591
86730W        W78654  32.705  38.229  50.124
86731W        W78655  25.220  37.704  50.153
86732W        W78656  37.191  39.726  49.684
86733W        W78657  39.201  45.679  53.809
86734W        W78658  29.238  34.737  49.672
86735W        W78659  15.752  41.203  51.075
86736W        W78660  26.246   8.265  51.508
86737W        W78661  35.210  33.734  51.519
86738W        W78662  42.200  18.234  51.503
86739W        W78663  43.206   9.247  50.611
86740W        W78664  30.746  25.740  51.974
86741W        W78665  28.733  34.206  52.447
86742W        W78666  10.766   3.286  50.152
86743W        W78667  39.202  41.721  52.415
86744W        W78668  34.706  33.730  53.354
86745W        W78669  12.754  34.724  53.773
86746W        W78670  44.720  40.720  51.533
86747W        W78671  26.255  27.707  51.515
86748W        W78672   9.778  29.745  51.521
86749W        W78673  34.736  44.688  52.420
86750W        W78674   8.748  10.739  51.060
86751W        W78675  34.217   8.767  52.443
86752W        W78676   6.251  45.217  51.509
86753W        W78677   0.768  33.220  50.598
86754W        W78678  44.701  15.250  49.675
86755W        W78679   2.288  13.738  53.795
86756W        W78680   1.770  11.241  50.155
86757W        W78681  43.205  17.242  51.991
86758W        W78682   8.258  14.751  50.133
86759W        W78683  27.750  14.251  52.904
86760W        W78684   1.268   4.778  50.158
86761W        W78685   8.257  19.263  49.668
86762W        W78686  28.229   9.268  51.968
86763W        W78687  25.237  34.740  50.595
86764W        W78688  19.741  29.749  49.664
86765W        W78689  23.231  26.245  50.605
86766W        W78690  37.732  24.215  52.419
86767W        W78691   3.274  34.239  50.616
86768W        W78692  32.230  38.691  51.048
86769W        W78693  16.252  33.197  52.870
86770W        W78694   7.240  34.700  50.605
86771W        W78695  35.692  21.215  50.164
86772W        W78696   7.255  48.205  52.881
86773W        W78697  28.222  16.742  52.883
86774W        W78698  46.193  31.700  51.513
86775W        W78699  37.737   6.775  51.959
86776W        W78700  14.743  16.244  51.524
86777W        W78701  28.735  44.200  50.159
86778W        W78702  18.235  37.715  52.419
86779W        W78703  42.186  34.738  49.702
86780W        W78704  40.186   0.756  53.805
86781W        W78705   2.786  28.221  53.329
86782W        W78706  28.234  27.736  50.137
86783W        W78707  12.240  21.251  50.603
86784W        W78708  39.209  28.246  53.318
86785W        W78709  11.251  23.258  49.681
86786W        W78710  40.729  33.230  50.162
86787W        W78711  39.732  21.747  52.902
86788W        W78712  36.216  21.221  52.405
86789W        W78713  23.260   1.276  51.512
86790W        W78714  14.733  30.712  51.047
86791W        W78715  17.770  40.725  51.961
86792W        W78716  36.213  17.232  51.040
86793W        W78717  18.766  17.250  52.887
86794W        W78718  43.196  38.725  50.587
86795W        W78719   4.255   5.274  52.437
86796W        W78720   7.753  14.274  52.888
86797W        W78721  12.235   6.785  49.679
86798W        W78722   1.251  27.714  49.671
86799W        W78723  43.716  26.732  53.329
86800W        W78724  38.228  38.706  51.498
86801W        W78725  34.705  24.229  53.322
86802W        W78726  26.744  41.708  51.529
86803W        W78727  10.752  34.711  52.877
86804W        W78728  42.717   7.244  51.055
86805W        W78729   2.274  31.231  49.702
86806W        W78730  40.713   0.257  51.527
86807W        W78731  24.749   8.283  49.695
86808W        W78732  44.677  38.236  51.526
86809W        W78733  13.748  42.189  50.612
86810W        W78734   9.734  44.691  50.135
86811W        W78735  34.734  37.713  53.358
86812W        W78736  31.713  26.736  52.882
86813W        W78737   7.758  13.762  52.409
86814W        W78738   7.775  10.234  52.433
86815W        W78739   9.257  23.234  53.807
86816W        W78740  47.192  29.744  51.501
86817W        W78741  46.682   2.284  51.506
86818W        W78742   8.780  13.243  51.051
86819W        W78743  20.247  34.713  50.136
86820W        W78744  47.715  24.257  50.619
86821W        W78745  14.257  24.223  53.319
86822W        W78746  27.251  43.690  51.512
86823W        W78747  37.197  45.220  51.069
86824W        W78748  29.721  44.697  53.813
86825W        W78749  33.708   0.267  51.065
86826W        W78750  25.229  42.192  51.075
86827W        W78751  15.756  32.707  49.702
86828W        W78752  24.753  17.259  51.978
86829W        W78753  41.214  28.253  51.068
86830W        W78754  11.737   6.263  49.674
86831W        W78755  38.235  11.232  50.128
86832W        W78756  12.244  23.718  50.610
86833W        W78757  39.701  38.200  52.884
86834W        W78758  25.753  48.177  50.578
86835W        W78759  45.714  24.241  51.065
86836W        W78760  37.688   9.240  49.673
86837W        W78761  41.223  13.745  50.597
86838W        W78762  31.215  21.260  49.676
86839W        W78763   0.256  19.742  50.137
86840W        W78764  36.217  27.215  51.042
86841W        W78765  15.763  14.764  52.419
86842W        W78766  31.242   4.293  52.442
86843W        W78767  25.747  29.216  52.869
86844W        W78768  35.709  11.760  51.505
86845W        W78769   2.247   6.271  49.697
86846W        W78770   3.262  32.716  50.620
86847W        W78771   0.755  27.212  52.879
86848W        W78772  32.714  31.246  53.356
86849W        W78773   0.275  20.262  50.160
86850W        W78774   1.269  31.734  52.441
86851W        W78775  22.229  22.223  51.493
86852W        W78776   0.774  23.738  50.140
86853W        W78777   3.771  22.230  53.777
86854W        W78778   4.751  32.236  52.411
86855W        W78779  33.714  20.235  51.502
86856W        W78780  41.227   9.277  52.424
86857W        W78781  42.186  35.693  51.523
86858W        W78782   0.760  39.209  53.347
86859W        W78783  26.727  15.255  52.433
86860W        W78784  33.697  41.713  52.448
86861W        W78785  26.210  17.762  53.324
86862W        W78786  46.202  37.194  52.419
86863W        W78787   2.763  20.256  52.406
86864W        W78788  44.692  12.257  51.985
86865W        W78789   2.294   5.262  51.497
86866W        W78790  25.245  32.236  53.326
86867W        W78791  19.720  17.249  53.794
86868W        W78792   8.743  30.228  53.321
86869W        W78793  39.210  41.196  52.901
86870W        W78794  32.231  38.727  50.163
86871W        W78795  19.754  18.248  52.867
86872W        W78796  14.238   0.760  51.521
86873W        W78797  30.712   1.751  50.579
86874W        W78798   4.750   1.759  53.795
86875W        W78799  37.231   8.264  52.407
86876W        W78800  28.222  45.205  50.615
86877W        W78801   6.754  38.222  53.341
86878W        W78802  46.179  31.718  53.806
86879W        W78803  12.244  31.741  50.133
86880W        W78804  42.721  26.726  50.159
86881W        W78805  33.733   8.284  51.072
86882W        W78806   6.260  37.730  51.981
86883W        W78807  27.224  21.247  51.507
86884W        W78808   8.771  27.242  51.069
86885W        W78809  11.273  17.239  50.134
86886W        W78810   2.262  16.258  53.781
86887W        W78811  46.698  10.757  52.446
86888W        W78812  10.249  40.193  49.677
86889W        W78813  18.748  20.248  51.063
86890W        W78814   7.739  32.731  50.590
86891W        W78815   3.770  23.236  51.958
86892W        W78816  24.242  44.203  49.681
86893W        W78817   2.251   5.747  52.423
86894W        W78818   2.279  12.272  51.965
86895W        W78819  45.178  44.206  52.425
86896W        W78820  41.224  23.250  53.795
86897W        W78821  15.733  30.222  51.497
86898W        W78822  36.737  34.742  51.953
86899W        W78823  10.264  24.251  50.141
86900W        W78824  22.721  46.675  50.591
86901W        W78825  14.250  23.253  53.341
86902W        W78826  28.205  39.190  51.070
86903W        W78827   5.253  19.241  50.122
86904W        W78828  42.723  27.732  53.347
86905W        W78829  31.747   6.778  51.491
86906W        W78830  13.232  16.757  51.959
86907W        W78831  32.698   0.798  53.336
86908W        W78832  24.249   8.779  53.815
86909W        W78833  11.762  39.226  51.040
86910W        W78834  32.227  23.230  53.779
86911W        W78835  27.207   0.757  53.806
86912W        W78836   3.247  24.742  53.324
86913W        W78837  30.745  14.241  52.425
86914W        W78838  45.183  28.703  51.060
86915W        W78839  37.212  24.225  51.500
86916W        W78840  28.725  35.225  49.688
86917W        W78841  21.264  19.240  49.685
86918W        W78842  47.717  33.738  51.505
86919W        W78843  42.693   0.259  51.074
86920W        W78844  38.689  12.242  53.809
86921W        W78845  38.200  36.698  50.596
86922W        W78846   5.756   9.273  53.775
86923W        W78847  33.724  26.748  53.322
86924W        W78848  24.747  22.751  51.061
86925W        W78849  22.237  38.688  49.694
86926W        W78850  45.211  12.755  51.058
86927W        W78851   0.291  47.193  51.972
86928W        W78852   0.797  26.750  53.796
86929W        W78853  38.190   3.764  51.992
86930W        W78854  40.725  24.232  50.146
86931W        W78855  11.253  21.261  51.069
86932W        W78856  26.741  20.722  51.963
86933W        W78857  35.739  13.261  51.530
86934W        W78858  16.760  27.206  50.608
86935W        W78859  11.762   8.747  50.150
86936W        W78860  34.734   2.286  51.497
86937W        W78861  47.699  34.713  50.149
86938W        W78862   5.270  15.239  50.595
86939W        W78863  22.753  37.217  52.865
86940W        W78864   5.289  25.216  51.491
86941W        W78865  32.215  18.264  52.903
86942W        W78866   8.280  16.769  53.327
86943W        W78867  46.719   0.270  51.502
86944W        W78868  31.202  28.719  51.059
86945W        W78869  12.273   4.752  50.609
86946W        W78870  29.220  11.760  49.674
86947W        W78871  14.745   6.268  53.799
86948W        W78872  31.698  42.195  50.606
86949W        W78873  34.730  46.700  52.881
86950W        W78874  30.243  39.234  53.795
86951W        W78875  39.722  47.718  52.433
86952W        W78876  13.256  48.204  53.777
86953W        W78877  22.750  16.267  53.811
86954W        W78878  22.757  22.248  52.873
86955W        W78879  24.246  36.207  52.905
86956W        W78880  22.732  16.266  51.499
86957W        W78881  39.727   4.766  53.345
86958W        W78882  16.758  46.722  50.139
86959W        W78883  36.690  39.715  49.701
86960W        W78884  30.241  16.270  49.708
86961W        W78885  25.218  29.721  49.693
86962W        W78886  14.271   7.772  51.066
86963W        W78887  24.745   5.746  53.344
86964W        W78888   0.290  14.771  53.795
86965W        W78889  44.200  20.739  50.130
86966W        W78890  25.230  17.739  52.878
86967W        W78891  34.723  33.743  51.503
86968W        W78892  36.712   1.264  50.580
86969W        W78893  44.198   0.299  51.052
86970W        W78894   7.785  48.207  51.058
86971W        W78895  24.730  39.711  49.704
86972W        W78896  39.195   8.765  53.352
86973W        W78897  48.205  28.241  51.491
86974W        W78898  44.192  25.724  51.963
86975W        W78899   9.261  31.734  51.977
86976W        W78900  19.755  31.742  53.801
86977W        W78901  33.205  38.192  50.579
86978W        W78902  16.745   7.782  52.898
86979W        W78903  11.266  38.191  52.409
86980W        W78904  47.184  33.213  53.324
86981W        W78905  15.244  17.249  51.065
86982W        W78906   1.260   2.759  52.889
86983W        W78907  30.705   4.747  52.882
86984W        W78908  22.718   8.256  50.126
86985W        W78909  21.761   9.273  50.613
86986W        W78910  48.216   7.258  53.335
86987W        W78911  16.253  10.762  53.813
86988W        W78912  22.259  39.719  50.618
86989W        W78913  23.743  41.711  49.698
86990W        W78914  14.767   1.766  49.697
86991W        W78915  21.728  21.252  51.505
86992W        W78916  43.180  10.744  52.883
86993W        W78917   7.739  41.220  52.405
86994W        W78918  31.738   2.765  51.513
86995W        W78919  23.731  30.244  50.592
86996W        W78920  29.239  30.242  52.421
86997W        W78921  40.227  44.193  51.988
86998W        W78922  14.238   7.774  53.330
86999W        W78923  42.718  22.252  52.891
87000W        W78924  42.199  40.688  49.665
87001W        W78925  37.703  10.235  51.519
87002W        W78926  15.231   4.288  52.427
87003W        W78927   9.774  19.262  50.616
87004W        W78928  40.699   7.282  53.336
87005W        W78929  38.227  10.749  51.947
87006W        W78930  22.750  37.206  51.957
87007W        W78931  16.235  11.767  50.596
87008W        W78932  23.215  43.711  52.883
87009W        W78933  41.227  18.766  51.955
87010W        W78934  23.240  12.265  49.704
87011W        W78935  25.222  33.708  50.131
87012W        W78936  16.733  24.220  53.343
87013W        W78937  10.253  33.714  52.866
87014W        W78938  13.751  13.242  51.077
87015W        W78939   5.770  32.230  51.962
87016W        W78940  42.197   0.263  53.335
87017W        W78941  27.227  32.230  52.901
87018W        W78942  47.187   6.253  52.422
87019W        W78943  36.222  45.216  51.506
87020W        W78944  13.748  24.721  49.705
87021W        W78945  20.222  20.265  52.871
87022W        W78946  10.759  27.729  49.683
87023W        W78947  45.707  38.210  51.499
87024W        W78948   0.760  37.691  51.522
87025W        W78949  29.740  38.234  53.324
87026W        W78950  30.716  13.271  52.445
87027W        W78951  19.251  46.174  52.875
87028W        W78952  19.252  32.219  51.956
87029W        W78953  32.744  44.694  51.977
87030W        W78954  33.715  24.216  51.508
87031W        W78955  19.266  16.229  50.594
87032W        W78956  32.222  12.230  52.426
87033W        W78957  44.207  19.226  52.409
87034W        W78958   3.759   9.266  50.130
87035W        W78959   5.750  38.715  53.814
87036W        W78960   6.254   1.274  51.503
87037W        W78961  46.180  28.231  51.965
87038W        W78962  45.688  17.234  51.495
87039W        W78963   6.251  42.716  52.406
87040W        W78964  20.258   5.263  50.593
87041W        W78965  20.240  21.231  50.596
87042W        W78966  35.738  31.227  50.593
87043W        W78967  14.273  17.766  53.810
87044W        W78968  40.686  25.725  53.345
87045W        W78969  44.179   1.283  52.885
87046W        W78970  23.220   6.253  53.788
87047W        W78971  42.709  42.706  52.426
87048W        W78972  10.257  16.242  51.501
87049W        W78973  47.186  26.743  50.132
87050W        W78974  42.206  25.741  49.709
87051W        W78975  24.749   4.282  52.426
87052W        W78976  47.676  27.211  49.686
87053W        W78977  44.221  45.193  49.673
87054W        W78978  28.749  44.207  53.774
87055W        W78979  30.728   4.249  52.883
87056W        W78980  37.207   8.782  51.972
87057W        W78981  33.201  30.712  49.684
87058W        W78982  35.730  30.737  51.991
87059W        W78983   6.258  28.224  52.881
87060W        W78984  26.727  43.228  53.806
87061W        W78985  35.209  42.714  52.417
87062W        W78986  10.246   8.263  53.779
87063W        W78987  43.720  47.177  52.438
87064W        W78988  46.205   4.753  52.420
87065W        W78989  43.197   4.774  52.413
87066W        W78990   7.276   0.780  50.579
87067W        W78991  34.217  17.733  50.583
87068W        W78992   1.762  29.251  53.783
87069W        W78993  38.189  12.235  53.319
87070W        W78994  32.741  10.741  49.672
87071W        W78995  13.731  42.688  53.789
87072W        W78996   0.790  30.707  51.494
87073W        W78997  41.713  42.181  51.952
87074W        W78998   1.794  32.698  50.121
87075W        W78999   8.746  26.222  50.153
87076W        W79000  26.734  22.750  51.957
87077W        W79001  21.235  17.739  51.510
87078W        W79002  34.236  32.732  53.350
87079W        W79003  26.246  13.251  53.348
87080W        W79004  16.733   2.251  51.525
87081W        W79005  12.773  33.195  52.404
87082W        W79006  23.238  19.762  53.816
87083W        W79007   9.253   8.766  51.050
87084W        W79008   9.258  43.217  53.780
87085W        W79009  26.231  27.217  52.879
87086W        W79010  41.709  47.195  53.320
87087W        W79011  25.226  44.692  49.681
87088W        W79012   2.249  47.219  51.530
87089W        W79013  10.779  42.207  51.499
87090W        W79014  20.240  33.233  50.622
87091W        W79015  37.725  35.712  53.361
87092W        W79016  46.203  18.237  50.606
87093W        W79017  28.219   0.260  49.688
87094W        W79018  35.193  14.258  51.057
87095W        W79019  24.717   3.273  50.123
87096W        W79020  43.197  38.214  51.991
87097W        W79021  26.712  10.752  51.497
87098W        W79022  39.191   7.278  49.674
87099W        W79023   6.271  25.708  50.157
87100W        W79024   8.739  36.705  51.054
87101W        W79025  19.742  21.245  53.783
87102W        W79026  15.263  27.212  50.129
87103W        W79027  38.735  38.734  51.949
87104W        W79028   6.767  17.261  50.136
87105W        W79029  29.247  42.709  51.959
87106W        W79030   6.771  46.693  53.809
87107W        W79031  20.265  13.747  51.963
87108W        W79032   1.283  47.214  50.134
87109W        W79033  44.695  38.688  52.421
87110W        W79034  39.199  47.672  51.951
87111W        W79035  36.211  17.748  53.804
87112W        W79036  37.235   9.271  53.810
87113W        W79037  17.768   8.752  49.690
87114W        W79038  36.703  25.746  51.491
87115W        W79039  46.722  26.254  53.360
87116W        W79040  37.712  14.768  51.510
87117W        W79041  11.250  13.761  51.534
87118W        W79042  30.234  22.256  53.811
87119W        W79043  35.193  10.254  51.074
87120W        W79044   6.782   7.251  52.888
87121W        W79045  19.254  45.679  51.490
87122W        W79046  38.232  10.276  51.516
87123W        W79047   4.247  19.263  50.600
87124W        W79048  21.257   3.792  52.889
87125W        W79049  15.269  31.234  51.964
87126W        W79050  40.203  11.250  51.507
87127W        W79051  32.730  30.747  53.336
87128W        W79052   1.795  30.214  50.129
87129W        W79053  38.204  44.695  51.502
87130W        W79054  21.248  10.267  50.594
87131W        W79055  30.215  21.726  51.505
87132W        W79056  29.739  12.737  50.592
87133W        W79057  28.745  23.715  52.889
87134W        W79058  29.705  21.235  49.709
87135W        W79059   9.740  35.718  50.577
87136W        W79060  32.205  10.758  52.420
87137W        W79061   1.286  30.229  53.332
87138W        W79062  27.732  23.759  49.696
87139W        W79063   0.257  45.223  53.337
87140W        W79064  29.241   5.744  49.706
87141W        W79065  29.222  45.704  51.954
87142W        W79066  29.233  19.233  50.582
87143W        W79067  18.253   9.744  52.871
87144W        W79068   4.749   0.289  52.410
87145W        W79069  44.208  10.272  51.530
87146W        W79070   2.795  19.743  53.350
87147W        W79071  34.739  20.234  50.582
87148W        W79072   3.264  18.235  51.072
87149W        W79073   7.775  24.217  50.609
87150W        W79074  27.719   4.787  52.416
87151W        W79075  31.714  30.238  52.887
87152W        W79076  28.711  22.746  50.616
87153W        W79077  42.717  33.197  50.584
87154W        W79078  21.754  47.705  50.598
87155W        W79079   7.251  42.698  51.058
87156W        W79080  32.246   3.280  50.165
87157W        W79081   0.286  44.693  49.686
87158W        W79082  28.729  23.711  49.670
87159W        W79083  30.219  42.701  52.867
87160W        W79084  32.197  43.717  52.886
87161W        W79085  15.726  37.710  53.336
87162W        W79086   3.283  37.220  52.403
87163W        W79087  26.216  15.228  51.073
87164W        W79088  42.687  31.720  50.579
87165W        W79089  32.243   4.252  51.072
87166W        W79090  23.254   9.271  50.614
87167W        W79091  23.225  36.696  52.409
87168W        W79092   3.791  10.254  50.579
87169W        W79093  33.215  11.280  50.580
87170W        W79094  37.203  13.761  52.885
87171W        W79095   0.784  41.204  53.788
87172W        W79096   6.761  16.768  52.425
87173W        W79097  27.731   1.273  51.535
87174W        W79098  10.268  35.241  51.527
87175W        W79099  16.230  12.263  50.621
87176W        W79100  45.210  30.223  51.984
87177W        W79101  18.259  31.728  51.073
87178W        W79102  27.739  17.766  51.042
87179W        W79103  31.744  38.203  51.518
87180W        W79104  44.694  41.724  50.617
87181W        W79105   3.761   4.263  53.348
87182W        W79106  33.237  21.259  51.948
87183W        W79107   8.744  28.239  53.347
87184W        W79108  21.254  47.200  52.424
87185W        W79109   1.253  45.208  53.358
87186W        W79110  12.746  41.704  51.972
87187W        W79111  46.213  28.209  50.601
87188W        W79112  14.236  39.717  51.069
87189W        W79113  17.228  30.212  52.894
87190W        W79114   3.294   1.275  53.319
87191W        W79115  37.216  41.202  51.963
87192W        W79116  46.220  29.204  51.958
87193W        W79117  22.748  27.241  51.531
87194W        W79118  47.218   8.780  51.971
87195W        W79119  43.718  29.745  51.988
87196W        W79120  14.275  31.740  51.506
87197W        W79121   6.244   8.252  51.035
87198W        W79122  47.719  12.755  51.493
87199W        W79123  43.214  44.697  51.059
87200W        W79124  20.240  25.733  51.948
87201W        W79125   8.758   6.275  52.430
87202W        W79126  12.738  10.273  53.800
87203W        W79127  16.751   4.763  51.515
87204W        W79128  23.711  34.709  51.035
87205W        W79129  15.731  21.738  50.616
87206W        W79130  37.222  33.216  53.804
87207W        W79131  18.269  41.683  50.146
87208W        W79132  28.223   4.786  52.404
87209W        W79133  45.685  42.220  49.666
87210W        W79134   8.751  44.220  52.405
87211W        W79135  23.228  13.767  50.623
87212W        W79136  30.712  48.195  49.682
87213W        W79137  28.226  21.744  52.448
87214W        W79138  14.727   4.775  52.427
87215W        W79139   3.763  25.245  53.345
87216W        W79140   4.755  33.200  49.704
87217W        W79141  46.717   1.782  51.070
87218W        W79142  21.249  11.744  53.791
87219W        W79143  12.734  46.708  52.860
87220W        W79144  36.224   9.250  52.403
87221W        W79145  18.751  10.761  52.428
87222W        W79146  42.694   7.742  52.408
87223W        W79147  47.685  16.753  50.140
87224W        W79148   5.248  15.728  53.785
87225W        W79149  48.211  47.187  50.154
87226W        W79150  18.253  25.717  51.063
87227W        W79151  18.252  45.196  53.800
87228W        W79152  39.188  19.733  51.522
87229W        W79153  27.718  41.687  49.695
87230W        W79154   1.264  38.710  51.972
87231W        W79155  20.237  41.703  53.323
87232W        W79156  17.251  16.751  50.620
87233W        W79157  47.712  12.740  50.133
87234W        W79158  16.232  36.734  53.329
87235W        W79159  25.209  30.717  51.074
87236W        W79160  33.725  32.706  51.963
87237W        W79161  28.215  48.190  51.072
87238W        W79162  22.742  10.744  53.329
87239W        W79163   7.742   1.270  52.871
87240W        W79164  15.268   9.735  52.865
87241W        W79165   0.772  48.202  50.135
87242W        W79166  40.724  30.209  53.776
87243W        W79167   8.254  10.263  51.978
87244W        W79168   7.255  33.244  51.521
87245W        W79169  24.740  26.243  53.804
87246W        W79170  32.715  44.183  51.989
87247W        W79171   7.761  14.766  53.331
87248W        W79172  39.721   0.270  51.979
87249W        W79173  21.247  26.752  53.321
87250W        W79174  10.235  24.717  52.903
87251W        W79175  11.252   5.252  51.973
87252W        W79176  17.240  11.742  51.507
87253W        W79177  23.228  45.691  51.046
87254W        W79178  13.259  44.712  53.789
87255W        W79179  48.208  41.715  52.412
87256W        W79180   5.269   6.262  53.347
87257W        W79181  13.743   4.268  52.412
87258W        W79182  13.232   6.251  49.702
87259W        W79183   6.779  33.733  51.079
87260W        W79184   1.782  38.705  52.422
87261W        W79185  21.760  33.714  53.329
87262W        W79186   5.752   5.256  51.509
87263W        W79187   8.250  14.766  50.587
87264W        W79188  33.733  44.191  50.598
87265W        W79189  39.222   1.776  51.989
87266W        W79190   1.266  36.691  50.123
87267W        W79191  30.217  39.712  52.899
87268W        W79192  29.207  46.189  51.527
87269W        W79193  13.747  41.188  51.985
87270W        W79194  46.685  20.244  53.816
87271W        W79195  11.261  21.260  53.346
87272W        W79196   4.776  47.686  53.332
87273W        W79197  17.240  37.211  51.516
87274W        W79198  19.233  29.721  52.406
87275W        W79199   8.270  32.232  51.493
87276W        W79200  11.767  13.261  53.342
87277W        W79201  20.230  46.677  50.149
87278W        W79202  42.213  16.760  53.322
87279W        W79203  37.719  21.226  49.669
87280W        W79204  34.742  30.747  51.979
87281W        W79205  31.734  37.699  53.319
87282W        W79206  36.203  46.180  51.068
87283W        W79207  42.717  14.244  49.705
87284W        W79208  38.236  41.225  51.068
87285W        W79209   6.269  33.724  50.614
87286W        W79210  44.178  47.214  52.423
87287W        W79211  45.202  43.194  51.065
87288W        W79212  28.218   9.774  53.774
87289W        W79213  37.190  47.713  51.055
87290W        W79214  33.741  11.750  53.785
87291W        W79215  45.721   0.757  53.337
87292W        W79216  30.233  41.209  53.777
87293W        W79217  22.241  11.733  51.066
87294W        W79218  43.689   1.792  52.870
87295W        W79219  41.204  22.724  53.796
87296W        W79220   4.244  13.276  52.406
87297W        W79221  30.744  43.226  51.077
87298W        W79222  36.223   3.776  50.621
87299W        W79223   7.287   4.784  51.972
87300W        W79224  17.261  17.749  53.792
87301W        W79225  14.263  26.208  50.165
87302W        W79226  12.775  33.702  50.161
87303W        W79227   5.246  48.215  49.695
87304W        W79228  16.237  39.231  50.577
87305W        W79229   3.773  23.712  51.059
87306W        W79230  39.235  32.212  51.066
87307W        W79231  48.175  30.722  52.901
87308W        W79232   9.244  30.216  49.705
87309W        W79233  18.722  39.187  51.501
87310W        W79234  42.696   9.278  51.076
87311W        W79235  34.712  36.229  51.954
87312W        W79236  19.744   5.745  53.316
87313W        W79237  45.201  39.692  51.034
87314W        W79238  27.215  40.224  52.866
87315W        W79239  14.253  30.735  53.807
87316W        W79240  44.205  21.224  51.961
87317W        W79241   4.771  14.764  51.964
87318W        W79242  28.709  44.684  51.954
87319W        W79243   1.765   2.793  53.782
87320W        W79244  46.710  20.240  52.433
87321W        W79245   6.740  44.705  53.336
87322W        W79246  27.244   7.775  51.061
87323W        W79247  22.242   3.262  52.422
87324W        W79248  20.739  13.777  52.887
87325W        W79249  33.717  43.189  52.420
87326W        W79250  37.198  21.754  52.432
87327W        W79251  15.756  36.206  52.891
87328W        W79252  31.744   9.752  51.982
87329W        W79253  25.715  12.771  53.804
87330W        W79254  17.735  14.233  50.612
87331W        W79255  28.249  22.722  52.876
87332W        W79256  13.732  38.229  50.134
87333W        W79257   3.762  43.703  53.806
87334W        W79258  16.268  47.683  51.515
87335W        W79259   7.743   7.762  52.880
87336W        W79260  41.205  40.698  51.531
87337W        W79261  35.737   9.251  51.497
87338W        W79262  31.203  26.713  51.956
87339W        W79263  36.690  38.223  49.698
87340W        W79264  24.747   8.782  53.334
87341W        W79265  26.254  32.210  50.584
87342W        W79266   1.796  36.718  50.622
87343W        W79267  43.191  32.199  51.036
87344W        W79268  13.267  18.763  53.801
87345W        W79269  46.198  32.214  49.695
87346W        W79270   2.273  43.700  51.515
87347W        W79271   9.253  18.267  50.138
87348W        W79272  20.731   0.264  53.335
87349W        W79273  19.263  37.708  49.675
87350W        W79274  47.712  28.713  49.673
87351W        W79275  45.706   5.258  53.319
87352W        W79276  35.735  31.211  53.786
87353W        W79277  24.226  15.724  50.154
87354W        W79278   5.767  42.691  53.318
87355W        W79279  42.202  31.245  51.061
87356W        W79280  31.727   4.755  50.618
87357W        W79281  24.743  38.693  53.358
87358W        W79282  32.222  37.210  52.869
87359W        W79283   5.758  48.194  51.514
87360W        W79284   4.788  46.721  50.165
87361W        W79285  43.226   3.749  52.870
87362W        W79286  47.706  35.698  50.620
87363W        W79287   6.241  34.213  51.062
87364W        W79288  28.744  19.753  50.151
87365W        W79289  35.201  33.238  50.621
87366W        W79290  45.723  13.260  50.155
87367W        W79291   2.295   5.265  51.991
87368W        W79292  22.240  40.199  51.535
87369W        W79293  37.215   5.756  51.493
87370W        W79294  16.759  23.719  51.068
87371W        W79295  35.699   8.743  51.070
87372W        W79296  34.700  24.735  51.046
87373W        W79297  41.213   5.252  49.699
87374W        W79298  43.188   8.747  52.900
87375W        W79299  33.243   3.278  51.967
87376W        W79300  12.267  11.741  50.132
87377W        W79301  37.711   1.272  50.129
87378W        W79302  14.245  15.770  53.812
87379W        W79303  27.732  12.763  53.331
87380W        W79304  41.193   9.738  50.136
87381W        W79305  13.752  35.233  53.774
87382W        W79306  32.730  15.265  51.066
87383W        W79307  43.698  40.203  51.058
87384W        W79308  27.744   9.773  51.971
87385W        W79309  36.222   1.784  50.589
87386W        W79310  29.749   2.257  51.517
87387W        W79311  33.221  13.732  53.804
87388W        W79312  18.749   9.734  49.691
87389W        W79313   4.288   4.283  52.421
87390W        W79314  16.768   0.764  49.702
87391W        W79315  17.245  44.194  52.418
87392W        W79316  10.759  13.739  51.964
87393W        W79317   4.286  33.238  51.991
87394W        W79318  13.251  14.264  53.804
87395W        W79319  13.740  10.263  51.500
87396W        W79320  46.212  24.224  53.806
87397W        W79321   5.261  44.702  51.510
87398W        W79322  37.694  17.244  52.445
87399W        W79323  26.228  39.705  53.818
87400W        W79324  16.744  42.689  53.807
87401W        W79325   3.777  40.692  51.959
87402W        W79326   8.742  16.758  52.405
87403W        W79327  28.211  16.224  52.865
87404W        W79328  28.730   5.752  53.356
87405W        W79329  42.228  26.735  53.332
87406W        W79330  33.203  27.228  53.796
87407W        W79331  13.273  41.190  51.068
87408W        W79332   8.776  48.186  50.594
87409W        W79333   6.240  16.258  51.070
87410W        W79334  21.217   9.781  50.137
87411W        W79335   5.757  30.710  49.672
87412W        W79336  32.715  35.705  51.535
87413W        W79337  37.213   2.266  50.596
87414W        W79338  43.198  32.725  52.408
87415W        W79339   1.752  36.211  51.078
87416W        W79340  40.202   4.244  52.443
87417W        W79341  12.248  47.697  49.673
87418W        W79342  35.214   2.248  49.669
87419W        W79343   6.258  48.192  50.612
87420W        W79344   1.262  18.269  53.791
87421W        W79345   0.798  19.732  52.902
87422W        W79346  23.758  43.210  53.801
87423W        W79347  18.266   3.287  52.422
87424W        W79348  11.235  16.734  51.079
87425W        W79349   2.281  41.195  51.527
87426W        W79350  25.729  25.245  51.991
87427W        W79351  34.226  38.713  51.492
87428W        W79352  16.234  36.710  51.518
87429W        W79353  21.761  35.693  51.982
87430W        W79354  16.766  23.237  53.808
87431W        W79355  43.708   8.773  50.137
87432W        W79356  26.710   7.272  53.345
87433W        W79357  29.731  36.214  51.966
87434W        W79358  37.210   2.274  52.879
87435W        W79359  18.741   6.773  52.871
87436W        W79360  35.707  25.231  51.529
87437W        W79361  35.233   3.786  51.511
87438W        W79362  30.719  34.723  50.584
87439W        W79363  20.763  36.237  53.336
87440W        W79364  31.728   0.784  52.421
87441W        W79365  10.744  34.240  52.903
87442W        W79366  10.261  13.240  49.700
87443W        W79367  33.718  14.742  51.496
87444W        W79368  29.210  36.716  52.874
87445W        W79369  23.722  14.244  51.077
87446W        W79370  39.728  32.698  50.139
87447W        W79371  29.236   3.779  51.521
87448W        W79372  46.710  11.753  51.979
87449W        W79373   2.751   1.778  53.800
87450W        W79374  27.248  27.218  51.512
87451W        W79375  23.243  32.216  49.676
87452W        W79376  39.229  45.701  50.583
87453W        W79377  18.266  27.207  52.423
87454W        W79378  29.726   4.292  53.813
87455W        W79379  35.695  10.253  51.521
87456W        W79380  22.222  42.711  52.892
87457W        W79381   2.772   3.753  52.404
87458W        W79382  14.774  28.728  49.710
87459W        W79383  29.231  35.726  49.669
87460W        W79384  41.706  43.705  49.702
87461W        W79385  29.234   1.278  50.583
87462W        W79386  23.253  11.250  53.788
87463W        W79387  24.235  19.754  50.582
87464W        W79388   9.259  25.222  52.903
87465W        W79389   9.265  46.207  51.068
87466W        W79390  42.209   1.751  53.814
87467W        W79391  26.729  16.254  49.690
87468W        W79392  16.235  18.257  52.884
87469W        W79393   4.259  28.234  50.130
87470W        W79394  24.738  12.242  51.525
87471W        W79395   4.260   8.772  49.676
87472W        W79396   9.772  37.716  52.887
87473W        W79397  14.738  12.763  53.817
87474W        W79398  17.246  29.728  51.956
87475W        W79399  29.736   4.784  52.418
87476W        W79400  43.198   7.261  53.785
87477W        W79401  30.223   1.287  49.681
87478W        W79402  19.251  26.217  53.775
87479W        W79403  39.224   0.289  50.147
87480W        W79404  43.707  38.699  52.407
87481W        W79405   4.792  11.269  53.789
87482W        W79406  38.705  31.221  50.610
87483W        W79407  25.733  26.716  51.523
87484W        W79408   4.289  46.190  52.417
87485W        W79409  30.213  24.211  52.894
87486W        W79410   4.750  47.204  51.499
87487W        W79411  22.254  34.704  51.518
87488W        W79412  23.729  43.226  53.357
87489W        W79413  30.218   5.262  51.524
87490W        W79414  30.719  20.724  50.157
87491W        W79415  16.264  38.232  49.674
87492W        W79416  26.218  41.726  50.160
87493W        W79417  12.771  24.726  52.419
87494W        W79418  11.776   9.277  49.670
87495W        W79419  11.253  40.728  49.701
87496W        W79420   9.252  25.721  51.037
87497W        W79421  44.700   4.756  53.329
87498W        W79422  23.723  32.220  49.674
87499W        W79423  22.741  19.722  49.704
87500W        W79424  21.239  43.690  50.146
87501W        W79425  48.203  22.750  50.592
87502W        W79426  33.732  39.698  53.812
87503W        W79427  44.682  13.275  49.701
87504W        W79428  21.245  18.729  50.133
87505W        W79429  38.195  25.255  51.991
87506W        W79430  23.729  31.220  51.955
87507W        W79431  36.692  22.719  50.617
87508W        W79432  44.691  24.731  52.865
87509W        W79433  40.216  47.187  53.802
87510W        W79434  44.180  31.203  50.141
87511W        W79435   9.284  38.693  51.503
87512W        W79436  19.756  16.236  49.670
87513W        W79437  36.704  36.694  49.705
87514W        W79438  45.192   7.258  51.956
87515W        W79439   6.764   3.790  51.976
87516W        W79440  33.704   5.759  51.529
87517W        W79441   9.781  16.242  53.337
87518W        W79442  39.189   5.786  50.604
87519W        W79443  26.747  45.715  52.437
87520W        W79444  28.225   8.781  50.609
87521W        W79445  41.226  16.272  50.580
87522W        W79446  15.241  18.719  53.360
87523W        W79447  47.686  15.272  50.160
87524W        W79448  35.210   0.772  52.860
87525W        W79449  30.729  31.236  51.510
87526W        W79450  46.186  44.713  50.136
87527W        W79451   8.246  21.247  52.871
87528W        W79452  34.219  11.763  51.069
87529W        W79453  46.682   0.765  52.863
87530W        W79454  11.778  24.238  51.527
87531W        W79455  36.208  42.694  51.954
87532W        W79456  35.228  40.191  50.588
87533W        W79457  38.203   8.270  50.149
87534W        W79458  25.750  24.726  51.068
87535W        W79459  17.770  26.230  51.527
87536W        W79460  42.208  35.239  50.585
87537W        W79461   7.247   7.781  51.055
87538W        W79462  45.220  16.245  51.039
87539W        W79463  28.211   8.237  53.779
87540W        W79464  37.703  41.183  53.323
87541W        W79465  14.751  44.703  49.704
87542W        W79466  48.172  48.208  51.952
87543W        W79467   2.768  27.208  52.434
87544W        W79468  26.717  33.711  51.511
87545W        W79469  10.258  30.243  50.162
87546W        W79470   5.784  42.216  51.512
87547W        W79471  23.748   4.745  51.509
87548W        W79472  30.212  17.239  52.880
87549W        W79473  47.176  28.250  52.874
87550W        W79474  36.198  11.275  52.444
87551W        W79475  12.253  19.720  50.604
87552W        W79476  46.195  28.715  52.430
87553W        W79477  45.684   8.783  51.950
87554W        W79478  13.269  46.693  53.800
87555W        W79479  38.208   0.284  49.692
87556W        W79480  17.245   6.245  49.691
87557W        W79481   4.755  45.178  50.143
87558W        W79482  28.226  21.754  51.052
87559W        W79483  35.724  23.754  52.421
87560W        W79484  40.188  34.727  53.814
87561W        W79485  18.238   4.760  53.795
87562W        W79486  43.711  15.271  52.861
87563W        W79487  46.202  13.234  52.432
87564W        W79488  39.726  22.756  50.593
87565W        W79489  21.261  11.273  53.777
87566W        W79490   1.260  32.741  49.683
87567W        W79491  19.232  12.775  53.354
87568W        W79492  32.203   9.783  51.493
87569W        W79493  42.206   4.266  53.806
87570W        W79494   7.250  33.242  49.684
87571W        W79495  41.693  32.732  51.981
87572W        W79496  40.189   7.741  50.593
87573W        W79497  46.179  13.244  51.960
87574W        W79498  47.709  35.718  52.429
87575W        W79499  20.757  40.699  49.709
87576W        W79500  11.237  47.682  52.896
87577W        W79501  31.733   3.277  51.534
87578W        W79502  10.269  29.725  50.158
87579W        W79503  19.760  44.222  52.439
87580W        W79504  45.197  23.231  49.691
87581W        W79505   2.289  32.696  50.146
87582W        W79506  24.758  10.763  51.528
87583W        W79507   5.251  36.228  52.408
87584W        W79508   6.771  11.276  49.705
87585W        W79509  41.184  17.737  52.416
87586W        W79510  33.244  45.721  50.587
87587W        W79511  19.753  23.741  49.682
87588W        W79512  16.738  15.756  49.709
87589W        W79513  44.208   5.260  53.804
87590W        W79514  47.697  11.251  51.503
87591W        W79515  39.207  27.247  50.150
87592W        W79516  13.247  32.211  52.418
87593W        W79517  33.217  48.173  51.503
87594W        W79518  14.767   9.254  50.579
87595W        W79519  27.216   2.759  51.526
87596W        W79520  18.719  31.726  51.072
87597W        W79521  13.266  10.249  52.902
87598W        W79522  47.183  12.760  49.665
87599W        W79523  21.236  21.744  50.604
87600W        W79524   8.281  36.191  53.349
87601W        W79525  17.730  12.263  51.065
87602W        W79526  41.705  29.747  51.951
87603W        W79527  31.738  46.193  50.164
87604W        W79528  12.752  11.248  53.782
87605W        W79529  32.717   9.262  50.598
87606W        W79530   7.282   4.273  52.414
87607W        W79531  27.717  12.269  52.901
87608W        W79532  36.237  24.753  50.609
87609W        W79533   9.268  23.745  52.439
87610W        W79534  32.243  34.693  51.078
87611W        W79535  42.710   3.267  53.360
87612W        W79536   4.775  21.263  51.533
87613W        W79537  45.685  21.754  50.607
87614W        W79538   4.785  29.206  51.975
87615W        W79539   2.761  10.742  51.040
87616W        W79540  12.267   5.772  52.876
87617W        W79541  14.770  27.252  52.886
87618W        W79542  37.204  33.241  53.336
87619W        W79543   6.767  23.232  50.138
87620W        W79544  38.192  17.756  52.442
87621W        W79545   0.275  43.724  51.955
87622W        W79546  13.252  40.193  51.077
87623W        W79547  22.229   8.271  52.418
87624W        W79548  26.727  40.210  52.883
87625W        W79549   4.772  44.211  50.580
87626W        W79550   5.250   9.772  51.035
87627W        W79551   1.794   3.252  49.707
87628W        W79552  31.730  16.770  50.135
87629W        W79553  33.235  10.772  50.159
87630W        W79554  47.199  18.767  52.869
87631W        W79555  22.762  36.731  53.774
87632W        W79556   5.251   4.775  53.811
87633W        W79557  11.251  34.725  52.430
87634W        W79558   8.781  12.236  51.490
87635W        W79559  13.244  16.771  50.619
87636W        W79560  47.712  18.760  51.050
87637W        W79561  44.710   0.292  53.316
87638W        W79562  36.708   1.767  51.075
87639W        W79563  18.255   4.244  52.415
87640W        W79564  11.768  24.248  51.964
87641W        W79565  46.710  35.734  50.577
87642W        W79566   7.242  26.746  52.438
87643W        W79567  44.223  14.252  51.534
87644W        W79568  27.742  47.705  52.425
87645W        W79569  39.212  31.246  51.953
87646W        W79570  42.723   7.752  53.797
87647W        W79571  28.248  32.733  51.963
87648W        W79572   7.277  27.706  53.353
87649W        W79573  31.224  42.727  50.599
87650W        W79574  42.215  21.730  50.588
87651W        W79575  27.706  38.722  52.416
87652W        W79576  33.739  21.251  50.615
87653W        W79577   8.738  44.225  53.331
87654W        W79578   0.277  30.220  51.050
87655W        W79579  13.241  39.695  50.609
87656W        W79580  28.724  25.237  49.699
87657W        W79581  46.200  36.190  52.903
87658W        W79582  40.731  21.757  50.162
87659W        W79583  41.216  22.753  49.671
87660W        W79584  11.244  16.258  50.149
87661W        W79585  21.223  31.202  52.425
87662W        W79586  11.263  14.751  50.138
87663W        W79587  28.725  32.743  52.896
87664W        W79588   8.244   0.760  49.683
87665W        W79589  35.236   6.288  53.793
87666W        W79590  41.694  46.722  49.673
87667W        W79591  15.274  33.710  51.066
87668W        W79592  33.727   7.768  53.324
87669W        W79593   2.776   6.240  52.880
87670W        W79594   3.257  25.709  53.342
87671W        W79595   8.753  39.685  51.050
87672W        W79596  23.743  43.189  50.584
87673W        W79597  45.685  36.738  49.667
87674W        W79598  27.747   7.740  50.603
87675W        W79599  15.743  11.778  50.592
87676W        W79600  10.773  12.272  51.992
87677W        W79601  12.244  12.730  52.898
87678W        W79602  20.261  29.215  52.422
87679W        W79603   2.256  10.753  51.948
87680W        W79604   5.267  40.699  51.982
87681W        W79605   0.294  21.737  51.078
87682W        W79606   3.258  34.220  53.359
87683W        W79607  32.206  48.190  52.899
87684W        W79608  48.215  32.201  50.609
87685W        W79609  15.262  29.212  49.688
87686W        W79610   6.752  25.218  53.779
87687W        W79611  47.183  30.229  51.507
87688W        W79612  22.714  36.711  51.492
87689W        W79613  10.282  33.208  51.517
87690W        W79614  46.682  28.723  53.813
87691W        W79615  18.756   8.277  51.035
87692W        W79616  16.230  39.689  51.490
87693W        W79617  40.709  21.256  51.044
87694W        W79618  42.726  21.260  51.976
87695W        W79619   3.761  27.744  50.608
87696W        W79620  25.712  14.245  52.443
87697W        W79621  42.692  31.242  51.504
87698W        W79622  19.739  22.749  50.578
87699W        W79623  24.218  37.722  53.780
87700W        W79624  40.686   0.281  49.679
87701W        W79625  26.751  24.219  51.508
87702W        W79626  46.710  42.217  52.882
87703W        W79627   6.752   9.283  51.070
87704W        W79628  11.750   5.275  50.589
87705W        W79629  23.218  18.750  53.357
87706W        W79630  42.715   1.282  53.790
87707W        W79631  26.707  30.223  52.433
87708W        W79632  22.729  19.230  50.134
87709W        W79633  27.752  22.256  51.046
87710W        W79634  36.726  20.239  51.493
87711W        W79635  17.246  38.228  50.615
87712W        W79636  11.240  16.726  49.670
87713W        W79637  34.200  13.750  51.055
87714W        W79638   3.246   8.772  51.970
87715W        W79639  32.730  32.229  53.318
87716W        W79640  32.199   4.753  52.410
87717W        W79641  39.224  45.176  50.616
87718W        W79642  20.217   5.765  51.504
87719W        W79643  10.780  38.226  50.593
87720W        W79644   7.761  32.213  49.694
87721W        W79645  11.753  14.232  53.802
87722W        W79646  39.685  36.721  52.412
87723W        W79647  36.224  46.190  50.616
87724W        W79648  21.759  14.751  51.968
87725W        W79649   4.282  34.707  50.601
87726W        W79650  14.234   3.779  52.902
87727W        W79651  20.723   8.267  53.332
87728W        W79652  38.223   7.765  51.059
87729W        W79653  28.240  10.246  53.317
87730W        W79654  39.197  28.222  51.042
87731W        W79655  15.257   4.248  49.710
87732W        W79656   6.783  15.762  49.694
87733W        W79657  43.715  24.223  49.679
87734W        W79658  23.221   0.256  53.330
87735W        W79659  44.207  45.693  51.498
87736W        W79660   1.758  28.734  51.533
87737W        W79661  36.702   7.285  49.704
87738W        W79662  40.195  11.252  50.607
87739W        W79663  11.281  25.717  49.707
87740W        W79664  26.218  19.727  52.404
87741W        W79665  37.731  34.234  50.578
87742W        W79666  11.242  19.257  53.772
87743W        W79667  28.720  24.231  50.122
87744W        W79668  24.718  42.210  50.590
87745W        W79669   7.285  24.744  51.533
87746W        W79670   6.787  46.673  50.121
87747W        W79671  29.717  32.727  51.973
87748W        W79672  45.678  42.196  53.780
87749W        W79673   5.787  33.698  53.344
87750W        W79674  14.758  22.741  51.075
87751W        W79675   5.285  47.181  52.881
87752W        W79676   0.286  31.731  51.957
87753W        W79677   0.770  36.728  53.781
87754W        W79678  43.697  23.221  52.889
87755W        W79679  26.717   6.765  49.696
87756W        W79680  31.747  47.203  53.341
87757W        W79681  20.246  20.231  51.056
87758W        W79682  18.761  37.204  53.807
87759W        W79683  16.239  38.230  51.957
87760W        W79684  10.778   5.268  51.968
87761W        W79685  15.253  24.223  53.360
87762W        W79686  13.243  29.708  50.605
87763W        W79687  27.237  18.754  52.408
87764W        W79688  45.202  31.207  52.904
87765W        W79689  10.735  15.751  49.694
87766W        W79690  16.761   4.281  52.426
87767W        W79691   8.751  10.256  51.063
87768W        W79692  14.758   1.768  53.776
87769W        W79693  40.227  46.708  52.425
87770W        W79694  46.192  23.730  53.783
87771W        W79695  27.239  11.273  50.617
87772W        W79696  14.268  15.250  51.504
87773W        W79697   4.274  16.252  52.446
87774W        W79698  33.715  19.727  52.875
87775W        W79699  47.707  30.210  52.446
87776W        W79700   1.297  32.221  52.419
87777W        W79701  30.745   7.770  53.330
87778W        W79702  21.258   4.780  53.335
87779W        W79703  37.728  31.729  53.349
87780W        W79704  14.754  34.704  49.705
87781W        W79705  38.697  22.737  51.989
87782W        W79706  31.714   0.269  51.952
87783W        W79707  34.699   9.764  51.958
87784W        W79708  27.705  45.682  50.616
87785W        W79709   1.769  44.213  52.430
87786W        W79710  24.714  45.219  50.604
87787W        W79711   3.784  35.206  50.584
87788W        W79712  30.732  30.731  53.789
87789W        W79713  36.724  46.691  51.990
87790W        W79714   4.761  26.240  53.355
87791W        W79715   2.251   1.767  51.057
87792W        W79716   8.780   5.763  51.519
87793W        W79717  26.220  40.723  53.782
87794W        W79718  12.743  26.241  53.792
87795W        W79719  28.749  13.743  50.131
87796W        W79720   7.772  11.258  53.316
87797W        W79721  31.237  45.194  51.044
87798W        W79722  28.245  16.753  53.778
87799W        W79723  42.209  45.214  51.058
87800W        W79724   8.251  15.729  49.703
87801W        W79725   5.267   9.247  53.319
87802W        W79726   0.761  27.733  51.041
87803W        W79727  15.760  32.200  52.868
87804W        W79728   6.770  21.759  52.863
87805W        W79729  42.183  44.203  49.697
87806W        W79730  23.761  22.239  51.952
87807W        W79731   6.260  24.249  49.704
87808W        W79732  36.701  26.740  51.043
87809W        W79733  21.258  29.217  51.503
87810W        W79734  40.230  18.240  51.060
87811W        W79735  38.718  22.234  52.885
87812W        W79736   1.252   9.284  51.513
87813W        W79737   7.268  30.748  50.591
87814W        W79738  40.688  24.755  49.682
87815W        W79739  10.778   4.748  51.070
87816W        W79740   3.753  19.726  50.584
87817W        W79741  37.225  45.183  51.493
87818W        W79742  35.721  38.223  53.787
87819W        W79743  28.221  28.719  52.412
87820W        W79744  10.244  33.709  51.492
87821W        W79745  34.206  23.718  51.952
87822W        W79746  43.225  46.708  50.121
87823W        W79747  24.241  24.719  50.127
87824W        W79748  28.718   3.279  52.417
87825W        W79749   8.766  37.727  51.949
87826W        W79750   3.257  35.695  51.983
87827W        W79751   0.777  44.682  53.327
87828W        W79752  35.233   9.770  50.141
87829W        W79753  15.739  44.684  51.959
87830W        W79754  28.713   7.781  51.953
87831W        W79755  31.709  42.680  50.149
87832W        W79756   0.264  35.726  49.708
87833W        W79757  45.195  25.241  51.512
87834W        W79758  35.692  32.209  52.412
87835W        W79759  26.707  26.753  53.788
87836W        W79760   2.746  46.705  50.148
87837W        W79761  19.733  19.743  51.050
87838W        W79762  37.736  22.238  51.499
87839W        W79763  18.743  23.231  52.436
87840W        W79764   4.756   4.773  53.321
87841W        W79765  34.215  15.268  51.530
87842W        W79766  33.739  42.226  51.068
87843W        W79767  11.264  24.227  51.512
87844W        W79768  35.705  46.676  53.778
87845W        W79769  43.218   1.292  50.160
87846W        W79770  26.235  37.698  51.505
87847W        W79771  15.239  29.246  50.578
87848W        W79772  17.724  43.214  53.328
87849W        W79773  40.710  41.210  51.516
87850W        W79774  37.717  42.223  50.163
87851W        W79775  47.195  26.211  53.811
87852W        W79776  37.215  26.212  50.593
87853W        W79777  10.736  20.256  51.077
87854W        W79778  13.766  15.773  51.519
87855W        W79779  19.264   2.283  52.434
87856W        W79780  23.220  37.722  53.807
87857W        W79781   6.269  40.704  51.976
87858W        W79782  24.226  36.238  51.035
87859W        W79783  26.242  33.723  50.606
87860W        W79784  15.247  24.722  53.331
87861W        W79785  18.723  10.244  51.951
87862W        W79786  24.719  44.180  52.890
87863W        W79787   4.249  23.216  53.330
87864W        W79788  31.221  33.244  53.805
87865W        W79789  12.772  18.244  51.053
87866W        W79790  23.725   5.244  50.615
87867W        W79791  41.691  23.249  50.124
87868W        W79792  21.733  42.191  51.961
87869W        W79793   0.754  36.220  50.151
87870W        W79794  28.234  31.222  52.870
87871W        W79795  19.721  33.235  53.790
87872W        W79796  37.694  12.243  51.518
87873W        W79797  30.713  33.705  53.352
87874W        W79798   3.792  37.732  51.054
87875W        W79799   1.288   2.257  53.323
87876W        W79800  43.213  18.768  51.035
87877W        W79801  11.771  31.223  49.668
87878W        W79802  14.260  29.209  52.890
87879W        W79803  36.709  12.243  50.582
87880W        W79804  24.720  18.245  49.701
87881W        W79805  23.715   6.241  50.597
87882W        W79806  35.725  32.222  52.870
87883W        W79807  23.253   2.275  51.503
87884W        W79808  41.207  34.734  52.447
87885W        W79809  16.229  29.741  53.791
87886W        W79810  11.744  11.253  50.125
87887W        W79811  19.252  36.719  52.887
87888W        W79812  24.224  32.711  50.582
87889W        W79813  25.710  14.772  51.986
87890W        W79814  33.226  31.241  49.665
87891W        W79815  42.725  11.778  51.503
87892W        W79816  23.727  46.175  50.622
87893W        W79817  11.272  12.735  53.792
87894W        W79818   7.268  29.722  52.442
87895W        W79819  17.765  32.197  52.427
87896W        W79820   2.249  36.223  50.143
87897W        W79821  42.221  21.219  50.603
87898W        W79822  10.766  31.711  52.431
87899W        W79823  41.708  14.265  50.125
87900W        W79824  38.721  46.179  51.991
87901W        W79825  42.202  18.729  51.041
87902W        W79826   1.771   5.253  51.064
87903W        W79827  36.724  20.263  52.887
87904W        W79828  19.265  16.724  53.317
87905W        W79829  41.207  39.231  51.507
87906W        W79830  47.695  29.213  49.684
87907W        W79831  22.762  22.220  53.355
87908W        W79832   2.261  44.686  51.509
87909W        W79833  22.727   2.757  53.349
87910W        W79834  28.244  45.704  51.973
87911W        W79835  42.193   8.276  53.782
87912W        W79836  34.728  10.741  51.034
87913W        W79837  38.702  37.208  50.608
87914W        W79838  39.705  34.232  50.587
87915W        W79839  13.771  34.705  51.038
87916W        W79840  11.760  42.195  51.949
87917W        W79841   7.745   0.766  50.152
87918W        W79842  26.715  24.246  50.138
87919W        W79843  29.717  28.219  52.888
87920W        W79844  30.744  14.227  51.961
87921W        W79845   7.760   7.766  53.797
87922W        W79846  40.197  14.739  51.063
87923W        W79847  43.690  22.241  53.334
87924W        W79848  44.678  44.695  51.495
87925W        W79849  37.205  27.707  51.067
87926W        W79850  37.711  42.699  50.582
87927W        W79851  20.252  23.218  49.692
87928W        W79852   4.781  39.234  53.804
87929W        W79853  46.712  39.685  51.490
87930W        W79854  27.213   9.276  49.667
87931W        W79855  11.248  36.707  49.684
87932W        W79856  12.244  12.260  50.125
87933W        W79857   3.278  32.197  49.697
87934W        W79858   2.265  30.741  51.491
87935W        W79859   1.760  18.741  50.611
87936W        W79860  41.222  35.214  51.979
87937W        W79861  23.756  22.234  50.597
87938W        W79862  15.264  11.771  51.981
87939W        W79863  17.744  34.706  53.360
87940W        W79864  26.234  42.188  52.872
87941W        W79865  22.216   3.770  49.688
87942W        W79866  46.704  35.697  52.885
87943W        W79867  41.212  35.701  51.984
87944W        W79868  45.719   5.267  49.699
87945W        W79869  11.767   6.786  52.879
87946W        W79870  37.693  34.732  53.814
87947W        W79871   5.276  40.205  49.705
87948W        W79872  22.222  20.748  51.985
87949W        W79873  22.755  41.685  52.443
87950W        W79874  43.685  38.715  50.143
87951W        W79875   5.264  47.183  51.965
87952W        W79876  13.754  27.744  50.156
87953W        W79877  45.686  47.710  52.418
87954W        W79878  33.718  46.696  51.077
87955W        W79879  44.715  39.233  51.052
87956W        W79880   7.763  36.237  52.448
87957W        W79881  20.241   6.745  53.783
87958W        W79882   0.758   1.291  53.359
87959W        W79883  23.228  14.767  52.431
87960W        W79884  32.705  19.723  51.063
87961W        W79885  17.747  43.192  51.062
87962W        W79886  19.737  24.731  49.708
87963W        W79887  45.203   8.237  53.349
87964W        W79888  47.685   6.780  52.437
87965W        W79889   6.748  26.744  53.810
87966W        W79890   6.244  10.238  52.405
87967W        W79891  36.693   5.777  52.437
87968W        W79892  25.210  12.736  51.958
87969W        W79893  47.699  45.200  53.327
87970W        W79894  45.689  29.703  51.074
87971W        W79895  31.226  47.710  50.578
87972W        W79896   4.288   4.769  51.513
87973W        W79897  44.208  43.715  52.405
87974W        W79898  25.720  25.727  53.810
87975W        W79899   9.754  10.267  49.702
87976W        W79900  18.222  11.250  52.871
87977W        W79901  22.231   7.743  51.968
87978W        W79902   6.756  41.195  52.443
87979W        W79903  36.238   3.252  51.977
87980W        W79904  45.689  33.744  51.053
87981W        W79905  17.722  47.683  51.961
87982W        W79906  32.240  28.740  49.676
87983W        W79907  31.734  40.225  52.897
87984W        W79908  47.184  20.754  50.165
87985W        W79909  39.726  26.245  49.670
87986W        W79910   9.746  47.201  51.039
87987W        W79911  37.735  41.206  50.578
87988W        W79912   9.738  36.194  49.688
87989W        W79913  36.720  24.746  51.988
87990W        W79914  38.687  28.205  50.617
87991W        W79915  31.201  19.749  53.791
87992W        W79916  22.221  10.269  52.433
87993W        W79917  33.717  48.184  50.609
87994W        W79918   4.274  48.198  52.884
87995W        W79919  28.245   9.754  50.136
87996W        W79920  37.224  24.245  52.425
87997W        W79921   5.761  47.201  50.621
87998W        W79922   2.272  17.266  50.579
87999W        W79923  45.205   7.739  49.707
88000W        W79924   9.274   5.266  53.776
88001W        W79925  43.209  33.236  49.670
88002W        W79926  29.229  27.242  51.076
88003W        W79927  41.714  10.279  51.075
88004W        W79928   4.255  38.200  50.605
88005W        W79929  21.719  31.732  52.425
88006W        W79930   3.780  29.743  50.603
88007W        W79931  20.754  31.206  50.153
88008W        W79932  34.740   4.768  53.800
88009W        W79933  30.234  20.723  51.515
88010W        W79934   6.761  28.205  52.426
88011W        W79935  13.253  23.250  52.406
88012W        W79936  32.709   2.273  52.902
88013W        W79937  21.762  33.720  50.138
88014W        W79938  21.759  18.743  51.985
88015W        W79939   6.269  29.202  51.528
88016W        W79940  41.694  31.217  49.672
88017W        W79941  19.727   3.776  49.691
88018W        W79942   9.284  45.225  51.056
88019W        W79943  26.223  31.222  50.608
88020W        W79944  36.693  43.203  52.406
88021W        W79945   5.279  10.741  51.973
88022W        W79946  22.247  16.744  53.346
88023W        W79947  21.242  46.713  52.876
88024W        W79948  22.254   7.259  49.675
88025W        W79949  45.691  29.736  53.800
88026W        W79950   2.789  23.244  51.071
88027W        W79951  21.252  39.701  52.885
88028W        W79952  33.707  14.762  50.123
88029W        W79953  29.241  40.226  51.985
88030W        W79954  24.710  44.676  52.406
88031W        W79955   3.263  33.195  51.045
88032W        W79956  18.224  28.749  49.706
88033W        W79957  13.244  46.205  50.600
88034W        W79958   1.776  18.256  51.041
88035W        W79959  16.238  17.244  53.806
88036W        W79960  13.234  25.255  51.990
88037W        W79961   9.754  37.208  51.522
88038W        W79962  40.192  13.748  50.131
88039W        W79963  12.777  24.260  52.874
88040W        W79964  17.770   6.741  49.705
88041W        W79965  47.202  32.228  53.348
88042W        W79966  15.271  17.238  52.408
88043W        W79967  17.262  20.755  53.331
88044W        W79968  35.729  21.233  52.412
88045W        W79969  12.743   9.257  53.808
88046W        W79970  40.216  45.180  50.596
88047W        W79971  29.747  14.272  53.334
88048W        W79972  23.729  18.737  52.876
88049W        W79973  42.709  18.257  51.948
88050W        W79974  45.179  44.208  50.158
88051W        W79975  32.232   7.272  52.900
88052W        W79976  19.224  11.238  51.980
88053W        W79977  33.740  19.263  51.534
88054W        W79978  23.246  41.730  52.876
88055W        W79979  47.219  27.247  53.786
88056W        W79980   0.254  10.753  53.342
88057W        W79981   7.779   6.785  52.888
88058W        W79982  11.748  29.702  50.581
88059W        W79983   1.279  47.704  53.782
88060W        W79984  15.741  40.723  50.623
88061W        W79985  31.230   5.276  50.164
88062W        W79986  41.688  32.745  49.695
88063W        W79987  27.246  33.700  51.963
88064W        W79988   6.765  12.776  53.351
88065W        W79989  19.751  15.251  50.584
88066W        W79990  32.735  19.748  51.535
88067W        W79991  43.211   0.755  52.414
88068W        W79992  47.681  25.745  50.137
88069W        W79993   4.269  12.256  51.056
88070W        W79994   9.753  40.186  50.154
88071W        W79995  43.692  37.212  49.670
88072W        W79996  31.706  15.773  51.984
88073W        W79997  40.203  29.732  49.668
88074W        W79998  42.229  38.728  53.781
88075W        W79999   0.775  22.721  51.950
88076W        W80000  42.724   3.272  52.874
88077W        W80001  13.749   5.778  53.344
88078W        W80002  26.755   8.254  51.961
88079W        W80003  39.193   0.290  51.987
88080W        W80004   4.274   6.754  52.428
88081W        W80005  17.759   2.250  49.670
88082W        W80006  16.262  26.722  50.593
88083W        W80007  13.770  39.195  49.670
88084W        W80008  30.704  45.678  51.961
88085W        W80009  28.718  24.254  51.516
88086W        W80010  22.246  18.240  49.706
88087W        W80011  16.245  21.221  50.129
88088W        W80012  12.239   2.262  51.507
88089W        W80013  41.697  39.686  51.060
88090W        W80014  38.705  43.722  50.139
88091W        W80015   6.741  43.718  50.134
88092W        W80016   4.267  30.730  51.499
88093W        W80017  23.719  21.240  50.589
88094W        W80018  21.250   4.264  53.777
88095W        W80019  36.714  46.680  50.137
88096W        W80020  26.729  38.691  52.873
88097W        W80021  46.674  31.741  51.974
88098W        W80022   4.255   3.773  53.351
88099W        W80023  22.239   5.277  50.591
88100W        W80024  13.249  43.686  49.696
88101W        W80025  17.262   4.245  52.866
88102W        W80026  36.698  31.226  52.861
88103W        W80027  23.227  29.212  53.793
88104W        W80028  17.722  41.222  51.515
88105W        W80029  44.226  42.705  49.699
88106W        W80030   9.285  36.730  51.986
88107W        W80031  45.678  22.744  51.951
88108W        W80032  12.762  27.750  51.529
88109W        W80033  35.210  19.252  49.704
88110W        W80034   1.795  18.246  51.520
88111W        W80035  47.173  24.240  52.416
88112W        W80036  20.734  24.211  51.057
88113W        W80037  33.242  31.712  51.957
88114W        W80038  15.728   2.758  49.667
88115W        W80039  16.246  41.204  53.775
88116W        W80040  33.729  42.227  50.578
88117W        W80041  19.265   3.251  53.324
88118W        W80042  46.178  24.229  51.531
88119W        W80043  26.720  31.224  50.599
88120W        W80044  23.752  29.205  53.361
88121W        W80045  32.209   1.780  51.978
88122W        W80046   9.746  36.700  51.043
88123W        W80047  48.180   2.777  50.142
88124W        W80048   5.278  24.220  50.589
88125W        W80049  40.214   4.787  51.533
88126W        W80050  31.711  35.237  50.592
88127W        W80051  33.738  37.713  50.157
88128W        W80052  47.693  42.181  51.041
88129W        W80053  32.203   3.761  53.799
88130W        W80054  11.265  41.219  52.446
88131W        W80055  33.238  19.253  53.331
88132W        W80056  43.191  13.240  49.676
88133W        W80057   9.278  19.742  52.421
88134W        W80058  13.738  37.236  53.336
88135W        W80059   4.789  30.235  51.987
88136W        W80060  18.225   3.284  51.497
88137W        W80061  39.196  16.732  53.351
88138W        W80062  29.245  46.711  52.865
88139W        W80063  14.760  35.226  52.864
88140W        W80064   1.293  29.243  49.699
88141W        W80065  16.741  48.180  51.950
88142W        W80066  10.259  31.732  51.530
88143W        W80067  18.241  42.198  52.880
88144W        W80068  36.220  45.191  51.968
88145W        W80069  28.205  22.223  50.621
88146W        W80070  24.710  28.705  53.777
88147W        W80071  30.231  23.250  51.064
88148W        W80072  23.752  28.745  49.679
88149W        W80073  26.719  39.222  51.073
88150W        W80074   0.791  37.712  52.412
88151W        W80075   1.789  36.734  53.355
88152W        W80076   8.751  24.230  53.785
88153W        W80077   3.755   7.281  51.525
88154W        W80078  14.772  37.237  52.864
88155W        W80079  29.228  28.729  50.594
88156W        W80080   8.264  28.740  53.804
88157W        W80081   0.775  16.739  53.795
88158W        W80082  19.721  22.219  53.341
88159W        W80083  26.233  32.204  49.675
88160W        W80084   3.793  32.230  51.978
88161W        W80085  42.215   1.296  50.141
88162W        W80086  21.759  10.262  51.045
88163W        W80087  39.204   2.291  51.529
88164W        W80088  12.770   3.284  52.897
88165W        W80089   3.790   9.249  53.803
88166W        W80090  10.755  34.720  53.786
88167W        W80091  24.743  24.721  51.984
88168W        W80092  23.720  36.720  51.531
88169W        W80093  20.225  47.213  51.501
88170W        W80094  20.222  26.229  51.965
88171W        W80095  39.729  17.243  52.415
88172W        W80096  17.738  13.750  53.353
88173W        W80097  41.223   7.771  52.406
88174W        W80098  22.718  46.695  52.903
88175W        W80099  24.739   7.756  51.980
88176W        W80100  13.277   4.251  53.333
88177W        W80101  37.721   1.789  50.121
88178W        W80102  11.232   0.286  52.417
88179W        W80103  19.732  32.240  53.804
88180W        W80104  22.245  30.242  50.591
88181W        W80105  20.235  44.677  51.059
88182W        W80106  40.188  21.216  53.349
88183W        W80107  19.742  10.272  53.801
88184W        W80108   8.768  38.732  53.339
88185W        W80109  33.239   1.272  51.962
88186W        W80110   8.775   2.278  51.494
88187W        W80111  15.737  38.709  52.878
88188W        W80112  23.231  12.243  53.815
88189W        W80113  41.714  43.210  49.685
88190W        W80114  16.245   6.272  51.985
88191W        W80115  26.235  31.707  52.859
88192W        W80116  33.715  10.274  50.151
88193W        W80117  40.731  30.722  51.981
88194W        W80118  34.741  24.245  49.700
88195W        W80119  10.771  20.248  53.811
88196W        W80120  24.741  36.192  52.889
88197W        W80121   5.765  41.692  50.165
88198W        W80122  18.747   3.294  50.587
88199W        W80123   4.290   9.271  53.777
88200W        W80124  27.724  41.201  52.873
88201W        W80125  27.745  43.225  53.343
88202W        W80126  12.748  40.206  53.796
88203W        W80127  40.200  28.749  53.803
88204W        W80128  18.759   7.751  50.157
88205W        W80129  33.213  29.711  53.782
88206W        W80130   4.262  23.238  51.056
88207W        W80131  34.731   7.246  49.666
88208W        W80132  40.698   0.272  50.619
88209W        W80133  10.777  44.202  53.354
88210W        W80134  38.696  25.729  52.444
88211W        W80135  33.212   6.779  53.333
88212W        W80136   9.240  18.745  53.360
88213W        W80137  39.686   6.763  50.155
88214W        W80138   5.762  39.219  52.903
88215W        W80139  45.709  17.225  53.786
88216W        W80140  30.721   7.254  50.596
88217W        W80141  11.242  14.274  51.965
88218W        W80142  16.245  21.748  53.805
88219W        W80143  14.760  40.708  51.038
88220W        W80144  13.253   6.787  52.428
88221W        W80145  44.224  35.229  53.787
88222W        W80146  25.252  34.713  53.342
88223W        W80147  47.176  47.190  51.044
88224W        W80148  31.240  13.764  50.606
88225W        W80149  27.749  42.724  53.344
88226W        W80150  39.693   9.777  51.529
88227W        W80151  32.239  20.764  52.406
88228W        W80152  35.232  46.218  50.618
88229W        W80153  38.712  31.211  51.054
88230W        W80154  27.732  15.255  51.950
88231W        W80155   7.268  16.253  53.791
88232W        W80156   1.785  16.726  52.442
88233W        W80157   3.775  31.716  53.808
88234W        W80158  16.771  22.734  51.061
88235W        W80159  23.255  10.753  52.875
88236W        W80160  47.209  45.687  53.359
88237W        W80161  34.236  20.720  53.333
88238W        W80162  45.202   7.781  52.404
88239W        W80163   8.762  11.768  51.987
88240W        W80164   0.798  28.742  52.447
88241W        W80165  24.731  17.222  51.065
88242W        W80166  42.212  19.730  52.423
88243W        W80167   7.746   3.752  53.322
88244W        W80168  41.214  35.218  51.507
88245W        W80169  25.747  39.222  51.962
88246W        W80170  10.758  19.222  52.433
88247W        W80171  39.209   8.783  50.127
88248W        W80172  14.747   2.772  52.442
88249W        W80173  29.204  25.717  52.446
88250W        W80174  27.248   1.774  52.872
88251W        W80175  22.714  32.698  50.146
88252W        W80176   0.296  10.275  53.772
88253W        W80177  10.745  31.726  50.613
88254W        W80178   3.785  15.756  53.323
88255W        W80179   4.277  41.231  52.863
88256W        W80180  33.709  46.707  52.439
88257W        W80181  42.695  15.744  51.490
88258W        W80182  30.711  18.254  52.882
88259W        W80183   4.273   9.252  50.614
88260W        W80184  16.268  31.236  51.037
88261W        W80185  18.741  22.742  52.892
88262W        W80186  20.762  21.740  50.142
88263W        W80187  38.198  19.728  50.122
88264W        W80188  28.722  19.754  53.349
88265W        W80189  27.221  13.751  53.795
88266W        W80190  43.704   9.270  53.780
88267W        W80191  10.274  33.230  52.412
88268W        W80192  45.218   6.775  50.603
88269W        W80193  41.228  44.685  53.810
88270W        W80194  43.717  32.714  50.617
88271W        W80195  14.752  10.750  51.983
88272W        W80196  34.706  21.230  50.583
88273W        W80197  22.741  27.236  52.447
88274W        W80198  44.678   7.768  51.059
88275W        W80199  25.754  34.734  50.578
88276W        W80200  40.207  47.712  50.579
88277W        W80201  10.241  47.710  50.137
88278W        W80202  45.213  27.733  51.957
88279W        W80203  39.697  34.241  50.140
88280W        W80204   9.782  23.226  49.675
88281W        W80205  47.183  14.236  51.509
88282W        W80206  20.746  24.256  53.792
88283W        W80207  19.748  41.707  49.665
88284W        W80208  13.234  33.725  52.430
88285W        W80209   7.763  40.192  51.964
88286W        W80210  15.727  23.717  50.608
88287W        W80211   0.798  32.740  51.519
88288W        W80212  27.719  42.713  50.154
88289W        W80213   3.773   2.786  52.429
88290W        W80214  36.219   8.758  52.901
88291W        W80215  25.249   7.267  50.600
88292W        W80216  42.714  41.198  52.430
88293W        W80217   5.762  33.219  49.686
88294W        W80218   4.746  24.245  49.684
88295W        W80219   4.256  34.729  49.669
88296W        W80220  42.226  21.749  52.419
88297W        W80221  31.220  38.207  53.333
88298W        W80222  35.738  15.768  51.958
88299W        W80223  29.732   2.293  49.689
88300W        W80224  16.261  27.237  53.788
88301W        W80225  33.732  27.751  51.530
88302W        W80226  22.740   0.275  51.069
88303W        W80227  29.709   9.740  49.679
88304W        W80228   0.291  45.206  51.497
88305W        W80229  10.264  38.191  51.075
88306W        W80230  32.225  47.202  51.035
88307W        W80231  12.768   1.793  51.055
88308W        W80232  45.714   4.753  53.348
88309W        W80233  48.210  36.214  51.504
88310W        W80234  33.204   3.258  49.684
88311W        W80235  20.219  12.734  53.338
88312W        W80236  35.202  12.774  52.447
88313W        W80237  38.195  26.755  51.041
88314W        W80238  34.697  22.739  52.434
88315W        W80239  19.756  22.748  51.952
88316W        W80240  22.752  28.730  51.078
88317W        W80241  23.251  39.700  51.983
88318W        W80242   9.274  14.772  50.135
88319W        W80243  38.206  37.207  50.129
88320W        W80244   7.766  43.718  49.665
88321W        W80245   8.272  16.769  52.412
88322W        W80246  28.250  35.198  50.617
88323W        W80247   6.746  28.227  53.331
88324W        W80248  33.702  47.686  52.901
88325W        W80249   9.754  28.751  49.695
88326W        W80250  23.220  37.702  51.042
88327W        W80251   6.247   4.290  53.358
88328W        W80252  41.202  22.762  51.509
88329W        W80253  10.272  10.262  51.964
88330W        W80254   1.281  46.181  51.986
88331W        W80255  25.725   8.245  52.880
88332W        W80256  44.687  25.708  51.065
88333W        W80257  42.217  28.228  51.492
88334W        W80258   1.752  20.747  53.787
88335W        W80259  16.765  44.183  53.789
88336W        W80260  32.726  31.211  52.904
88337W        W80261  46.174  17.235  49.686
88338W        W80262   9.764  41.189  52.412
88339W        W80263  45.198  43.202  52.416
88340W        W80264  15.247   2.290  51.036
88341W        W80265  17.728  34.218  53.317
88342W        W80266  14.254  28.716  53.773
88343W        W80267  39.712  15.226  50.156
88344W        W80268   8.759  32.217  49.698
88345W        W80269  30.244  44.202  50.621
88346W        W80270  34.234  31.204  50.161
88347W        W80271  22.228   3.260  51.511
88348W        W80272  28.245  48.199  50.152
88349W        W80273  35.696  26.241  53.357
88350W        W80274  27.239  35.207  51.963
88351W        W80275  25.708  28.720  51.076
88352W        W80276  23.215  46.709  50.603
88353W        W80277   4.261  46.712  53.810
88354W        W80278  27.725  20.226  50.134
88355W        W80279  24.253  17.256  52.438
88356W        W80280  12.735  28.248  53.325
88357W        W80281  41.204  18.244  52.412
88358W        W80282  10.276  42.227  53.355
88359W        W80283   1.791  38.189  53.317
88360W        W80284   7.256  20.259  50.593
88361W        W80285  23.237  40.199  51.043
88362W        W80286  23.249  16.250  51.511
88363W        W80287   4.265  27.249  52.410
88364W        W80288  38.703  22.742  49.690
88365W        W80289  32.217   1.288  52.865
88366W        W80290  21.226  48.187  53.336
88367W        W80291  17.239  33.732  53.803
88368W        W80292  24.226   8.261  50.121
88369W        W80293  19.220  48.196  51.035
88370W        W80294  30.733  36.703  53.340
88371W        W80295  46.719  35.213  50.151
88372W        W80296   0.281   8.740  49.709
88373W        W80297  19.257  39.225  51.981
88374W        W80298  48.189  35.709  52.868
88375W        W80299   2.250  45.700  53.360
88376W        W80300  40.197  28.746  53.318
88377W        W80301  24.743  40.716  52.425
88378W        W80302  13.773  44.197  52.404
88379W        W80303  10.736  47.206  52.418
88380W        W80304   7.284   0.288  53.325
88381W        W80305  17.733  29.718  51.980
88382W        W80306  26.210  39.733  52.898
88383W        W80307  28.221  11.753  51.075
88384W        W80308  38.192  33.240  49.682
88385W        W80309   4.767  30.234  50.130
88386W        W80310  26.216  46.177  51.529
88387W        W80311  21.729   0.788  51.957
88388W        W80312  34.204  17.728  51.954
88389W        W80313  27.719  31.721  52.891
88390W        W80314   1.262  35.694  51.040
88391W        W80315  36.236  28.730  52.433
88392W        W80316   4.755  30.726  53.774
88393W        W80317  32.738  43.179  50.605
88394W        W80318  48.209  47.697  52.863
88395W        W80319  47.184  23.738  50.619
88396W        W80320  18.760  28.739  52.882
88397W        W80321   5.790  45.196  52.863
88398W        W80322  25.729  27.751  51.062
88399W        W80323  32.709  46.217  53.359
88400W        W80324  29.244  30.231  49.700
88401W        W80325  42.705   7.754  51.524
88402W        W80326   0.299   8.750  52.420
88403W        W80327   1.789  19.250  51.964
88404W        W80328  29.251  23.216  51.046
88405W        W80329  11.249   4.282  51.505
88406W        W80330   6.785  19.261  51.523
88407W        W80331  23.738  14.768  53.779
88408W        W80332  35.222  10.275  51.978
88409W        W80333  47.711   8.282  53.318
88410W        W80334  42.228  31.226  51.970
88411W        W80335  23.255  17.736  51.508
88412W        W80336  34.194   4.783  52.421
88413W        W80337  30.237   5.782  49.696
88414W        W80338  38.200  22.218  52.874
88415W        W80339  13.737  22.237  52.883
88416W        W80340  43.192   0.255  49.677
88417W        W80341  38.719  44.181  51.508
88418W        W80342  41.227   8.737  50.130
88419W        W80343  34.217  26.247  53.789
88420W        W80344  37.726   1.275  50.591
88421W        W80345  21.252   5.742  52.871
88422W        W80346  28.712  41.708  49.671
88423W        W80347  43.725  38.201  51.499
88424W        W80348  47.209  25.754  50.137
88425W        W80349  40.223  14.264  53.809
88426W        W80350  40.206  46.181  51.059
88427W        W80351   3.755   0.790  53.793
88428W        W80352  10.777  14.274  50.150
88429W        W80353  40.213  36.701  52.861
88430W        W80354  30.746  14.730  53.360
88431W        W80355  15.731  28.724  52.442
88432W        W80356  12.275  17.232  51.499
88433W        W80357  47.712  43.182  53.352
88434W        W80358  20.227  40.203  53.354
88435W        W80359   6.243  47.679  52.890
88436W        W80360  34.240  47.181  50.122
88437W        W80361  39.231  30.225  51.062
88438W        W80362  31.734  37.213  51.947
88439W        W80363   9.258  26.755  50.606
88440W        W80364  25.229  20.219  51.045
88441W        W80365  29.737  17.770  51.506
88442W        W80366  36.201  20.224  51.512
88443W        W80367  28.228  32.202  49.694
88444W        W80368  32.740  46.706  50.601
88445W        W80369   7.249  17.223  51.045
88446W        W80370  16.759  34.242  53.318
88447W        W80371  36.201  47.720  53.333
88448W        W80372  41.224  13.272  51.048
88449W        W80373   4.284  10.241  51.505
88450W        W80374  21.752  34.197  53.814
88451W        W80375  20.243  15.236  53.795
88452W        W80376  40.701  13.266  53.345
88453W        W80377  29.246  32.717  49.710
88454W        W80378  37.706   6.749  51.075
88455W        W80379  26.741  37.717  51.043
88456W        W80380  26.732  43.686  51.514
88457W        W80381  11.738  16.234  51.515
88458W        W80382  27.246  28.235  51.517
88459W        W80383   3.294  38.234  53.358
88460W        W80384  41.182  11.739  50.619
88461W        W80385  47.704   2.285  51.044
88462W        W80386   4.289  36.733  53.353
88463W        W80387  43.723  18.231  52.405
88464W        W80388  37.713  27.252  51.971
88465W        W80389   3.245  31.201  50.613
88466W        W80390  32.218  46.201  50.131
88467W        W80391  42.182  44.699  51.499
88468W        W80392  18.262  13.745  52.868
88469W        W80393  27.743   8.240  49.706
88470W        W80394   5.790  31.219  53.341
88471W        W80395   3.750  38.233  53.327
88472W        W80396  48.207  41.715  51.526
88473W        W80397  35.693   8.277  52.875
88474W        W80398   1.775  19.749  53.779
88475W        W80399  35.238  20.732  53.775
88476W        W80400  37.235  12.734  53.783
88477W        W80401   0.269  12.754  51.978
88478W        W80402  43.720  38.213  50.593
88479W        W80403  19.736  47.199  49.705
88480W        W80404  25.233  38.191  50.163
88481W        W80405  21.747   4.782  50.587
88482W        W80406   5.758  19.735  49.689
88483W        W80407   6.774   5.773  53.318
88484W        W80408  31.231  10.269  51.955
88485W        W80409   9.754   9.263  53.338
88486W        W80410   7.261  30.725  51.042
88487W        W80411   7.759  36.702  49.701
88488W        W80412  46.214  30.717  50.142
88489W        W80413   2.770  28.210  51.039
88490W        W80414   3.250   5.269  51.503
88491W        W80415  24.253  21.247  50.622
88492W        W80416   1.790  21.744  51.981
88493W        W80417   0.292  10.269  51.069
88494W        W80418  19.719  22.714  49.671
88495W        W80419  29.243  10.736  50.613
88496W        W80420  15.757   1.775  52.872
88497W        W80421  27.246  25.234  53.321
88498W        W80422  30.230  46.714  50.126
88499W        W80423   7.766  43.713  53.324
88500W        W80424  44.190  43.210  52.421
88501W        W80425  36.707  27.726  50.165
88502W        W80426  25.709   0.774  49.685
88503W        W80427  10.747  13.234  49.693
88504W        W80428  18.266  21.247  50.610
88505W        W80429   9.753  31.716  53.782
88506W        W80430  12.254  38.711  53.782
88507W        W80431   5.779  18.251  53.782
88508W        W80432  26.214   9.274  50.592
88509W        W80433  19.747  48.201  51.526
88510W        W80434  43.712  39.187  53.793
88511W        W80435  37.206  15.728  50.131
88512W        W80436   0.271  44.212  52.437
88513W        W80437  24.229  21.749  50.129
88514W        W80438  10.250  45.202  51.075
88515W        W80439  41.229   2.792  51.971
88516W        W80440  44.217  19.717  50.142
88517W        W80441  13.242  25.239  53.782
88518W        W80442   9.757  25.719  52.884
88519W        W80443  44.679   5.277  51.949
88520W        W80444   7.285  45.715  52.445
88521W        W80445  14.250  24.750  52.412
88522W        W80446  40.709  34.739  52.417
88523W        W80447  25.740  13.751  50.137
88524W        W80448  46.197  36.237  51.525
88525W        W80449   2.255  40.702  52.410
88526W        W80450  14.730  46.713  52.860
88527W        W80451   7.781  15.264  53.336
88528W        W80452  43.681  40.714  53.353
88529W        W80453  41.224  30.716  51.048
88530W        W80454  32.214   8.277  50.127
88531W        W80455  26.231  36.239  49.702
88532W        W80456  34.740  44.677  50.129
88533W        W80457  42.211  22.755  53.345
88534W        W80458   9.754  37.695  50.131
88535W        W80459  38.720   2.792  49.703
88536W        W80460  42.185  32.697  52.885
88537W        W80461  18.723   2.749  53.817
88538W        W80462  22.262  12.754  52.877
88539W        W80463  25.732  21.748  52.860
88540W        W80464  29.708  47.705  53.323
88541W        W80465   7.252  26.747  53.333
88542W        W80466  26.720  15.268  51.986
88543W        W80467  32.237  42.219  52.878
88544W        W80468   5.247  12.258  50.614
88545W        W80469  23.751  24.743  53.343
88546W        W80470   3.775  19.264  51.975
88547W        W80471   2.759  11.770  53.321
88548W        W80472  13.263  22.263  52.418
88549W        W80473  35.209  48.220  52.864
88550W        W80474  20.732  45.721  52.413
88551W        W80475  21.726   9.254  52.446
88552W        W80476  21.732  45.181  50.140
88553W        W80477  38.710  30.203  50.606
88554W        W80478  46.706  19.259  51.045
88555W        W80479  16.242  23.260  50.620
88556W        W80480   2.763  43.185  50.579
88557W        W80481  26.710  33.221  51.509
88558W        W80482  46.200  34.719  51.507
88559W        W80483  33.198   0.781  52.445
88560W        W80484  21.732  14.766  50.597
88561W        W80485  38.230  13.769  51.987
88562W        W80486  20.233  43.207  51.987
88563W        W80487  43.227   2.269  52.421
88564W        W80488  12.251  11.773  51.048
88565W        W80489   4.749  41.231  51.059
88566W        W80490  20.249  46.202  51.034
88567W        W80491  17.755   5.253  51.511
88568W        W80492  14.731  43.681  50.615
88569W        W80493  34.709  20.765  52.894
88570W        W80494  40.218  41.230  51.534
88571W        W80495   1.273  38.237  53.796
88572W        W80496  16.723  24.215  50.615
88573W        W80497  23.235  45.696  51.949
88574W        W80498  20.228   8.264  52.417
88575W        W80499  11.261  26.218  51.980
88576W        W80500  22.231   5.767  50.161
88577W        W80501   4.757  14.263  51.499
88578W        W80502  42.687  22.725  51.493
88579W        W80503  37.698  40.206  52.865
88580W        W80504  31.702   5.771  50.598
88581W        W80505  35.734  35.206  51.517
88582W        W80506  13.740  18.764  50.581
88583W        W80507  39.235   3.291  49.702
88584W        W80508  27.220   4.791  51.531
88585W        W80509  41.684  33.197  51.076
88586W        W80510  11.253   0.269  50.127
88587W        W80511   4.745  36.232  52.421
88588W        W80512  13.735  39.724  50.606
88589W        W80513   4.282  31.224  50.166
88590W        W80514  33.727  23.724  51.049
88591W        W80515  24.730  48.190  50.129
88592W        W80516   4.254  33.218  51.516
88593W        W80517  44.707   0.264  50.611
88594W        W80518   8.741   2.747  53.340
88595W        W80519  39.232   5.769  50.156
88596W        W80520  30.735  30.713  51.055
88597W        W80521  36.240  47.685  53.808
88598W        W80522  25.728  43.202  51.055
88599W        W80523  41.707  36.229  50.158
88600W        W80524  35.738  38.236  53.351
88601W        W80525  16.243  17.734  51.512
88602W        W80526  26.721   8.779  53.811
88603W        W80527  28.227  34.721  49.690
88604W        W80528  25.238  16.245  51.976
88605W        W80529  42.213  32.708  49.676
88606W        W80530  23.723  15.770  51.045
88607W        W80531  32.704   4.757  51.973
88608W        W80532  42.223  23.749  53.801
88609W        W80533  48.217   1.252  52.862
88610W        W80534  36.690  24.255  52.863
88611W        W80535  19.727  46.721  50.154
88612W        W80536   3.289  29.220  51.497
88613W        W80537  35.239   1.793  51.071
88614W        W80538   0.769  45.689  51.985
88615W        W80539   7.740  45.716  51.952
88616W        W80540   5.263  38.707  52.417
88617W        W80541  31.746  46.700  50.595
88618W        W80542   8.737  18.246  50.594
88619W        W80543  24.740  26.228  50.148
88620W        W80544   7.762  20.757  51.515
88621W        W80545   9.276  23.256  50.144
88622W        W80546  29.743  43.188  51.490
88623W        W80547  18.234  37.730  53.351
88624W        W80548  11.767  31.207  52.445
88625W        W80549  41.701  33.233  50.602
88626W        W80550  48.181  23.752  51.062
88627W        W80551  30.229  43.203  53.327
88628W        W80552  43.702  30.221  53.318
88629W        W80553   3.788  42.203  52.446
88630W        W80554  22.233  18.733  49.686
88631W        W80555   8.263   9.747  51.989
88632W        W80556  33.215  38.207  49.685
88633W        W80557  46.690   5.246  51.527
88634W        W80558  46.719  20.733  49.693
88635W        W80559  43.225  33.203  52.444
88636W        W80560   7.766  44.701  50.165
88637W        W80561   1.749  36.205  53.780
88638W        W80562  15.751   3.786  50.124
88639W        W80563  25.729  12.750  52.445
88640W        W80564  13.743  39.198  51.987
88641W        W80565  13.771  43.712  51.956
88642W        W80566  27.712   5.267  49.702
88643W        W80567  38.712   6.774  50.608
88644W        W80568  32.710   1.773  49.679
88645W        W80569  23.243  24.717  51.510
88646W        W80570  42.214   8.737  51.076
88647W        W80571  13.763  10.754  52.407
88648W        W80572  30.203  24.233  49.683
88649W        W80573  22.749  23.752  51.511
88650W        W80574  43.182  25.732  52.440
88651W        W80575   4.787   5.245  50.606
88652W        W80576  42.692  22.736  52.900
88653W        W80577   4.757  30.224  51.494
88654W        W80578  37.698  18.740  50.614
88655W        W80579  22.234   7.778  53.319
88656W        W80580  45.699  35.226  52.881
88657W        W80581  42.727   0.797  52.873
88658W        W80582  37.208  11.271  51.512
88659W        W80583  21.761   5.267  51.508
88660W        W80584   5.277  35.201  53.328
88661W        W80585  30.233  12.251  53.776
88662W        W80586   5.790  30.218  53.333
88663W        W80587   0.762   6.769  50.578
88664W        W80588  36.240  39.198  50.581
88665W        W80589   7.744  22.245  53.321
88666W        W80590   2.252  39.201  50.159
88667W        W80591  37.736   3.259  51.969
88668W        W80592  39.198  45.706  52.448
88669W        W80593   3.290   1.293  51.494
88670W        W80594   2.770   8.246  50.588
88671W        W80595  12.231  32.225  50.591
88672W        W80596  27.221   1.291  50.595
88673W        W80597  12.731  41.720  53.321
88674W        W80598   2.770   8.274  51.507
88675W        W80599   5.259  11.731  52.406
88676W        W80600  25.747   5.261  51.528
88677W        W80601  17.226  46.217  53.793
88678W        W80602  22.728  14.751  50.604
88679W        W80603  28.729   6.769  50.600
88680W        W80604   1.772  12.270  51.056
88681W        W80605   4.273  37.201  51.504
88682W        W80606  18.256  46.177  53.332
88683W        W80607  14.246  11.736  51.502
88684W        W80608  40.701  12.250  51.044
88685W        W80609  37.719  40.221  53.810
88686W        W80610  31.226   6.244  53.346
88687W        W80611  12.236  45.717  51.951
88688W        W80612   9.759  36.195  52.441
88689W        W80613   5.790   3.252  53.780
88690W        W80614  39.214  20.244  50.146
88691W        W80615  27.245  20.755  53.807
88692W        W80616  38.718  17.752  53.325
88693W        W80617  36.690   5.254  52.898
88694W        W80618  20.239  45.209  50.146
88695W        W80619   6.778  26.207  50.610
88696W        W80620  39.726  29.703  52.888
88697W        W80621   4.261  12.232  50.155
88698W        W80622  27.752  28.237  50.611
88699W        W80623  40.232  20.731  53.332
88700W        W80624  18.221  14.757  50.583
88701W        W80625  20.226  22.236  50.591
88702W        W80626  20.762  29.222  51.533
88703W        W80627  18.762  25.235  50.131
88704W        W80628   4.747  17.752  53.344
88705W        W80629  20.250  13.252  49.693
88706W        W80630  12.261   6.745  52.869
88707W        W80631  32.734  16.249  52.866
88708W        W80632  37.718  47.711  53.346
88709W        W80633  45.215  27.220  53.318
88710W        W80634  44.679   7.262  53.814
88711W        W80635  12.734  22.214  50.124
88712W        W80636  10.741  47.681  50.129
88713W        W80637   6.256  39.711  50.150
88714W        W80638  11.769  35.726  51.046
88715W        W80639  45.210  22.217  53.788
88716W        W80640  20.244  17.754  50.593
88717W        W80641  26.231  10.272  49.670
88718W        W80642  11.741  21.717  53.779
88719W        W80643   8.762  46.207  51.041
88720W        W80644   3.267  17.265  49.689
88721W        W80645  21.716  33.204  51.497
88722W        W80646  47.712  45.180  53.812
88723W        W80647  15.729  30.236  53.324
88724W        W80648  28.251  35.733  49.679
88725W        W80649  23.238  26.219  51.490
88726W        W80650  16.250  12.739  51.952
88727W        W80651  14.747  45.194  53.328
88728W        W80652  13.275  28.734  52.864
88729W        W80653  41.226   8.762  50.617
88730W        W80654  28.240  28.234  52.407
88731W        W80655   0.751  39.730  51.948
88732W        W80656  23.244  16.242  53.780
88733W        W80657  19.244  18.731  50.621
88734W        W80658   8.776  43.222  51.954
88735W        W80659  21.725  33.224  53.357
88736W        W80660  22.734  27.730  50.121
88737W        W80661   6.286   3.767  50.608
88738W        W80662  28.246   8.250  49.703
88739W        W80663  32.244   5.255  49.679
88740W        W80664  19.727  33.736  50.578
88741W        W80665   0.295  26.716  50.582
88742W        W80666  12.265  31.739  53.813
88743W        W80667  42.181  36.727  51.502
88744W        W80668  10.773  37.723  53.798
88745W        W80669   5.757  43.698  51.957
88746W        W80670  46.692  20.757  50.122
88747W        W80671  17.234   1.295  50.162
88748W        W80672  32.245  48.183  52.423
88749W        W80673   1.292   3.285  51.988
88750W        W80674  43.684  46.673  50.149
88751W        W80675  34.198  46.217  52.860
88752W        W80676  10.767   0.752  53.321
88753W        W80677  42.713  36.216  52.864
88754W        W80678  30.725  46.708  52.411
88755W        W80679  33.731   5.769  52.412
88756W        W80680  41.220  38.734  49.678
88757W        W80681   3.772   0.287  52.893
88758W        W80682  11.245  47.221  51.968
88759W        W80683  10.733  18.734  53.357
88760W        W80684  21.728  34.697  50.585
88761W        W80685  36.713  43.695  52.412
88762W        W80686  14.230  27.253  53.356
88763W        W80687   0.784  22.748  51.079
88764W        W80688  33.217  44.686  52.411
88765W        W80689  45.675  35.711  52.880
88766W        W80690  41.709  19.726  50.579
88767W        W80691  25.725  41.695  52.405
88768W        W80692  46.213  14.728  49.680
88769W        W80693  25.223  36.193  49.707
88770W        W80694  10.761  16.772  52.897
88771W        W80695  26.232   4.247  50.598
88772W        W80696  27.229  26.724  50.590
88773W        W80697  32.739  12.273  49.676
88774W        W80698  16.770  21.719  50.138
88775W        W80699  18.261  22.218  51.957
88776W        W80700  48.217  28.240  52.887
88777W        W80701   0.759  47.718  52.445
88778W        W80702  24.227   3.292  52.890
88779W        W80703  43.180   9.781  52.444
88780W        W80704  42.213  45.700  51.057
88781W        W80705   2.795  35.716  51.527
88782W        W80706   7.783  14.267  51.520
88783W        W80707  16.256  47.709  52.861
88784W        W80708  11.765  33.213  52.411
88785W        W80709  33.711  40.726  52.445
88786W        W80710  38.729  35.230  49.672
88787W        W80711  26.222  24.223  50.145
88788W        W80712  26.755  17.271  49.687
88789W        W80713  12.741  17.264  53.339
88790W        W80714  37.708   3.762  53.784
88791W        W80715  22.263  23.737  49.690
88792W        W80716  26.230  33.723  53.805
88793W        W80717  16.732  29.710  51.512
88794W        W80718  37.716  42.712  51.506
88795W        W80719   1.775  16.756  51.524
88796W        W80720  36.714  11.264  51.054
88797W        W80721  33.210   1.280  51.533
88798W        W80722  36.217  18.259  50.134
88799W        W80723  34.216   7.772  50.578
88800W        W80724  18.254  45.693  52.430
88801W        W80725  43.714  20.729  51.499
88802W        W80726  45.190   9.237  49.708
88803W        W80727  39.718  32.243  50.131
88804W        W80728   8.748  46.707  53.773
88805W        W80729   3.749  23.747  53.801
88806W        W80730  38.229   7.739  52.888
88807W        W80731  26.240  19.226  53.348
88808W        W80732  31.241  45.710  49.671
88809W        W80733  19.250  28.234  52.879
88810W        W80734  17.245  14.274  50.129
88811W        W80735  29.739  47.709  50.125
88812W        W80736  17.761  14.729  51.075
88813W        W80737  36.228  38.710  53.793
88814W        W80738   6.242  23.258  51.517
88815W        W80739   0.779  37.196  51.978
88816W        W80740  21.755  47.199  50.586
88817W        W80741  24.740  44.691  51.054
88818W        W80742  36.227  22.738  52.885
88819W        W80743   5.784  42.224  49.691
88820W        W80744  47.698  46.216  52.903
88821W        W80745  34.709  43.221  51.966
88822W        W80746  34.741  40.211  51.972
88823W        W80747   0.772   0.253  51.532
88824W        W80748  27.219   6.243  50.165
88825W        W80749   7.778  43.227  52.895
88826W        W80750   7.776  24.755  50.602
88827W        W80751  10.251   7.247  51.948
88828W        W80752  34.221   1.260  52.409
88829W        W80753  40.210  43.716  53.337
88830W        W80754  12.243  20.222  49.689
88831W        W80755  11.251  23.255  53.809
88832W        W80756  16.728  34.695  51.037
88833W        W80757   0.256   0.273  52.863
88834W        W80758  30.245  33.227  51.986
88835W        W80759  35.227  11.243  51.055
88836W        W80760  20.718   4.267  50.603
88837W        W80761  22.758  36.690  52.440
88838W        W80762  10.770  31.229  52.424
88839W        W80763  26.745   3.272  49.684
88840W        W80764  39.705  17.270  50.620
88841W        W80765  22.251  33.240  51.530
88842W        W80766  18.260   2.763  52.411
88843W        W80767  41.731  24.214  53.322
88844W        W80768  24.240  41.190  52.408
88845W        W80769  33.714  16.733  50.143
88846W        W80770   4.249  47.714  52.874
88847W        W80771   0.287  44.213  51.963
88848W        W80772  18.756  27.743  51.981
88849W        W80773  37.232  44.192  52.422
88850W        W80774  25.754  20.227  53.322
88851W        W80775  17.264  23.252  53.343
88852W        W80776  47.683  29.236  50.598
88853W        W80777  35.702   5.787  49.702
88854W        W80778  37.696  45.223  53.781
88855W        W80779  18.748   2.260  50.130
88856W        W80780  12.267   9.766  51.046
88857W        W80781  29.234  37.689  50.597
88858W        W80782  40.728  32.217  52.865
88859W        W80783   0.780  11.261  50.130
88860W        W80784  26.717  47.679  51.959
88861W        W80785  33.209  34.703  52.896
88862W        W80786  31.215  26.724  51.528
88863W        W80787  18.245  14.770  52.902
88864W        W80788   9.743   7.242  50.607
88865W        W80789  31.224  23.233  51.048
88866W        W80790  47.187  48.196  51.976
88867W        W80791   7.248  18.245  52.419
88868W        W80792  31.223  21.721  51.058
88869W        W80793  25.258  39.225  52.406
88870W        W80794  18.765  38.198  49.671
88871W        W80795  32.224  37.195  49.704
88872W        W80796  43.689   8.270  52.414
88873W        W80797   5.253  32.725  49.695
88874W        W80798  27.715  20.232  49.708
88875W        W80799  23.719  29.243  51.509
88876W        W80800   4.765  45.678  52.875
88877W        W80801  19.222  31.737  50.584
88878W        W80802  38.224  34.236  51.059
88879W        W80803  10.278   1.287  51.973
88880W        W80804   7.781  45.684  52.867
88881W        W80805   0.791  20.251  52.423
88882W        W80806  18.739  36.728  49.691
88883W        W80807  15.248  31.203  53.782
88884W        W80808  11.767  11.754  50.607
88885W        W80809  39.689  23.735  51.533
88886W        W80810  21.722  31.737  53.779
88887W        W80811  27.752  34.196  49.673
88888W        W80812  22.728   6.741  52.430
88889W        W80813  25.242  10.754  50.128
88890W        W80814   8.266  36.714  51.992
88891W        W80815   8.770   6.243  53.325
88892W        W80816   4.282  29.702  53.329
88893W        W80817  43.225  40.210  51.071
88894W        W80818   3.782  14.765  50.600
88895W        W80819   5.281  32.226  50.157
88896W        W80820  17.737  32.734  53.338
88897W        W80821  20.264  10.245  52.903
88898W        W80822  10.240   8.266  49.710
88899W        W80823  12.234  46.209  50.163
88900W        W80824  47.195  25.754  49.667
88901W        W80825  43.208  37.719  52.427
88902W        W80826  26.746  19.746  51.511
88903W        W80827  27.730  40.198  50.592
88904W        W80828  34.720  35.708  51.046
88905W        W80829  23.724   8.751  53.339
88906W        W80830  34.701  13.266  53.332
88907W        W80831  46.695   4.763  53.337
88908W        W80832  23.247  46.207  52.420
88909W        W80833   2.288   1.750  51.493
88910W        W80834   9.779  47.678  53.782
88911W        W80835  32.696   5.756  53.808
88912W        W80836  29.235  45.712  53.780
88913W        W80837   4.291  16.751  51.988
88914W        W80838   2.265   1.770  53.331
88915W        W80839  18.760  22.750  53.344
88916W        W80840  40.694  24.749  50.133
88917W        W80841  22.740  40.199  51.973
88918W        W80842  20.761  27.723  52.406
88919W        W80843  21.751   2.262  50.149
88920W        W80844  29.746  40.205  50.136
88921W        W80845   8.263  17.226  51.969
88922W        W80846  26.220  35.231  50.133
88923W        W80847  43.216  43.201  49.686
88924W        W80848  29.711  42.701  51.494
88925W        W80849  46.676  19.234  52.863
88926W        W80850  41.719  41.221  49.684
88927W        W80851  41.223  38.715  52.903
88928W        W80852  18.768   1.779  52.867
88929W        W80853  35.737  35.728  51.514
88930W        W80854  33.725  22.743  50.156
88931W        W80855   8.259  29.718  51.987
88932W        W80856   3.747   7.765  51.521
88933W        W80857  45.187   1.279  52.883
88934W        W80858  48.190  47.713  50.616
88935W        W80859   2.780  26.753  53.786
88936W        W80860  29.250  38.707  52.899
88937W        W80861   8.276  46.201  51.506
88938W        W80862  38.194   2.264  51.956
88939W        W80863  31.213   6.273  52.410
88940W        W80864  33.720   9.254  52.884
88941W        W80865   8.241   2.787  52.902
88942W        W80866  46.703  41.202  51.050
88943W        W80867  25.744  44.215  53.784
88944W        W80868  45.675   9.242  52.433
88945W        W80869  10.738  41.698  52.886
88946W        W80870  26.734   4.269  53.786
88947W        W80871   2.274  42.722  51.987
88948W        W80872  17.721  25.245  51.504
88949W        W80873  15.256  24.259  53.816
88950W        W80874  23.718  47.679  49.675
88951W        W80875  14.265   9.275  52.890
88952W        W80876   3.253  24.247  50.583
88953W        W80877   1.281  16.752  53.783
88954W        W80878  15.272   0.761  52.404
88955W        W80879  28.708  29.735  53.774
88956W        W80880   8.769  32.229  50.591
88957W        W80881  28.710  45.207  52.444
88958W        W80882  11.741  30.237  50.127
88959W        W80883  40.210  23.717  52.870
88960W        W80884  24.720  43.725  50.613
88961W        W80885  21.240  19.252  51.500
88962W        W80886  25.243  10.279  51.073
88963W        W80887   0.285  21.756  53.814
88964W        W80888   1.747   7.778  51.498
88965W        W80889  33.718  40.721  51.992
88966W        W80890  32.700  48.204  52.879
88967W        W80891  25.228  35.694  53.790
88968W        W80892  14.768  36.691  50.148
88969W        W80893  31.212  13.275  51.044
88970W        W80894  45.675   7.781  51.499
88971W        W80895  10.266  44.201  52.435
88972W        W80896   3.789  19.262  51.063
88973W        W80897   1.783   8.749  52.404
88974W        W80898  16.742  45.207  50.616
88975W        W80899  41.707   6.272  53.789
88976W        W80900  27.724  24.253  52.878
88977W        W80901   5.757  26.723  53.806
88978W        W80902  23.755   7.771  50.142
88979W        W80903  15.725  42.230  53.789
88980W        W80904  23.214  34.204  51.964
88981W        W80905  16.770   0.793  50.127
88982W        W80906  16.253   2.768  50.599
88983W        W80907  38.717  23.253  52.410
88984W        W80908  37.732  34.713  53.321
88985W        W80909  19.734  17.235  50.161
88986W        W80910   3.782  40.685  51.520
88987W        W80911   1.793   1.776  51.076
88988W        W80912  40.722  20.758  52.424
88989W        W80913  26.751  19.240  53.793
88990W        W80914  14.267  23.222  50.592
88991W        W80915  37.207  29.718  52.420
88992W        W80916  24.750  22.233  51.050
88993W        W80917   2.286  12.733  52.891
88994W        W80918   1.283   9.766  49.680
88995W        W80919  46.199  35.721  51.041
88996W        W80920  38.222  37.730  53.815
88997W        W80921   1.274  18.722  52.409
88998W        W80922  21.238  34.237  51.980
88999W        W80923  22.725   8.237  52.416
89000W        W80924   5.273   3.755  51.953
89001W        W80925  32.724  22.723  52.878
89002W        W80926   6.243   3.251  51.949
89003W        W80927  38.705  30.744  50.129
89004W        W80928  34.211  11.276  50.612
89005W        W80929  35.194  41.199  52.882
89006W        W80930  25.747   4.778  51.975
89007W        W80931  39.210  37.707  49.708
89008W        W80932   7.763  47.191  53.795
89009W        W80933  29.738  46.202  50.124
89010W        W80934  40.719  16.236  52.896
89011W        W80935  16.743  11.747  51.048
89012W        W80936  38.733   5.278  51.511
89013W        W80937  21.750  46.222  52.405
89014W        W80938   3.753  12.762  51.527
89015W        W80939  13.257  42.691  53.783
89016W        W80940  31.204  30.220  50.586
89017W        W80941   4.761  36.192  49.678
89018W        W80942  12.743   8.751  52.879
89019W        W80943   1.750   0.760  51.035
89020W        W80944  14.259  29.745  53.776
89021W        W80945  24.749  25.227  51.064
89022W        W80946  16.757  30.206  52.872
89023W        W80947  29.708  29.703  49.679
89024W        W80948  32.222  40.212  53.773
89025W        W80949  46.190  48.206  53.812
89026W        W80950   3.249   9.252  53.321
89027W        W80951  10.732  34.218  51.970
89028W        W80952  17.243  17.254  53.344
89029W        W80953  26.236  23.247  51.531
89030W        W80954  20.717   6.742  53.816
89031W        W80955  22.746  18.229  51.510
89032W        W80956  41.213  19.260  51.073
89033W        W80957   3.749  34.214  49.709
89034W        W80958  20.728  43.188  51.956
89035W        W80959  17.240  25.718  52.894
89036W        W80960  13.231  18.732  52.423
89037W        W80961   8.283   0.283  50.132
89038W        W80962  45.675  24.212  52.409
89039W        W80963  42.716  30.207  51.070
89040W        W80964  10.772  16.242  50.613
89041W        W80965  35.198  26.208  52.889
89042W        W80966  20.716   3.791  53.351
89043W        W80967  22.741  13.731  53.817
89044W        W80968  27.731  22.742  51.529
89045W        W80969  41.194  31.741  51.493
89046W        W80970  33.695  43.689  49.673
89047W        W80971  39.709  43.711  51.979
89048W        W80972  35.714  17.760  52.881
89049W        W80973   5.286  47.221  50.583
89050W        W80974  35.715   6.754  53.785
89051W        W80975   7.247  46.189  50.147
89052W        W80976  47.717  30.727  53.797
89053W        W80977   7.777  43.722  51.037
89054W        W80978  42.704  18.762  53.329
89055W        W80979  13.272  22.756  51.041
89056W        W80980  43.223   1.282  51.992
89057W        W80981  28.219  27.243  49.665
89058W        W80982  28.228  45.183  51.961
89059W        W80983  14.253  21.260  52.403
89060W        W80984  40.723  33.204  52.436
89061W        W80985  41.223  32.223  53.784
89062W        W80986  36.217  24.733  52.902
89063W        W80987  41.207  20.259  51.971
89064W        W80988  13.753  33.721  50.615
89065W        W80989  19.252   5.287  51.034
89066W        W80990  39.204  45.196  53.795
89067W        W80991   7.746  29.710  50.599
89068W        W80992  38.705  37.209  51.068
89069W        W80993   6.272  30.726  49.686
89070W        W80994  41.207  35.236  50.616
89071W        W80995  25.221  26.209  50.617
89072W        W80996  34.718  22.727  51.982
89073W        W80997  33.202  12.253  50.618
89074W        W80998   6.786  40.200  51.076
89075W        W80999  45.177   6.739  49.674
89076W        W81000  34.719  24.223  50.589
89077W        W81001  41.691  30.744  50.130
89078W        W81002   2.281  12.268  49.666
89079W        W81003  47.713  28.726  50.623
89080W        W81004  13.246  42.208  50.578
89081W        W81005  27.231  27.213  50.153
89082W        W81006  46.174   1.795  51.507
89083W        W81007  23.214  37.203  50.157
89084W        W81008  17.764   4.273  50.584
89085W        W81009  26.215  20.257  50.620
89086W        W81010  14.258   2.768  51.530
89087W        W81011  17.742  24.754  53.354
89088W        W81012  15.728  41.711  49.692
89089W        W81013  11.278  46.678  51.972
89090W        W81014  12.773  12.263  52.900
89091W        W81015  22.746   5.271  51.515
89092W        W81016  37.237  21.262  53.780
89093W        W81017  17.756  46.190  53.355
89094W        W81018  36.693  28.214  51.514
89095W        W81019  45.219   2.792  51.500
89096W        W81020   9.276   5.777  52.435
89097W        W81021  22.746  40.698  53.319
89098W        W81022   5.757  10.767  51.528
89099W        W81023  46.696  47.201  51.986
89100W        W81024  40.186   1.748  51.963
89101W        W81025   1.291  16.261  52.861
89102W        W81026   2.271  13.239  51.535
89103W        W81027   6.775  38.714  51.045
89104W        W81028  16.748  21.721  51.956
89105W        W81029   6.259   1.267  50.152
89106W        W81030  29.725  29.718  53.793
89107W        W81031  16.752  17.232  53.795
89108W        W81032  46.186  37.192  53.340
89109W        W81033   2.760   3.269  49.708
89110W        W81034   8.771  13.730  52.424
89111W        W81035  31.209  28.243  50.135
89112W        W81036  42.716   1.761  52.893
89113W        W81037   2.274  25.750  51.527
89114W        W81038  40.205   9.744  51.069
89115W        W81039  38.203  39.235  53.777
89116W        W81040  12.756   6.286  52.443
89117W        W81041   3.264  16.252  50.577
89118W        W81042  34.732  26.729  52.862
89119W        W81043  43.199  27.247  51.951
89120W        W81044   0.776  42.701  52.406
89121W        W81045  35.200  46.207  51.042
89122W        W81046  27.227  44.715  51.962
89123W        W81047  26.754  20.246  51.974
89124W        W81048   9.258  16.247  53.812
89125W        W81049   8.779  33.733  52.871
89126W        W81050  17.763  44.183  53.788
89127W        W81051  16.259  33.221  51.034
89128W        W81052  17.754  35.224  50.163
89129W        W81053  31.701  32.236  50.588
89130W        W81054  25.714   9.251  50.578
89131W        W81055  12.258   0.755  51.503
89132W        W81056  34.716  18.727  50.145
89133W        W81057   0.277  36.723  53.353
89134W        W81058  18.727  11.742  52.415
89135W        W81059  45.217   8.785  50.148
89136W        W81060   2.758  26.738  50.140
89137W        W81061  46.177  39.696  50.129
89138W        W81062   7.770  12.761  52.880
89139W        W81063   2.761  25.719  52.874
89140W        W81064   4.246   1.248  51.947
89141W        W81065   3.778  13.760  49.701
89142W        W81066   3.762  17.722  50.153
89143W        W81067   6.742  34.207  52.877
89144W        W81068  13.275  18.759  49.704
89145W        W81069  20.220   6.251  51.494
89146W        W81070  36.232   3.783  51.981
89147W        W81071  12.754  27.236  53.316
89148W        W81072  27.236  13.758  50.146
89149W        W81073   9.742  26.232  51.065
89150W        W81074  42.216  27.728  51.982
89151W        W81075  19.224  15.226  52.421
89152W        W81076  25.224   8.239  51.503
89153W        W81077  41.697  31.705  53.815
89154W        W81078  44.217  12.277  50.140
89155W        W81079  12.269  48.203  51.034
89156W        W81080  17.251   4.755  52.890
89157W        W81081  32.201  21.248  51.983
89158W        W81082  36.229   2.766  50.122
89159W        W81083  42.726  21.216  49.708
89160W        W81084  32.705  22.229  51.963
89161W        W81085  32.215   8.769  52.878
89162W        W81086  38.232   8.764  49.674
89163W        W81087  36.713  38.216  51.034
89164W        W81088   3.281   5.266  51.040
89165W        W81089   7.760  43.715  51.493
89166W        W81090   0.263  37.725  53.333
89167W        W81091   7.779  33.704  50.155
89168W        W81092  13.739  43.678  50.150
89169W        W81093   5.767  44.207  50.164
89170W        W81094  12.774  47.195  53.324
89171W        W81095  40.706  18.734  49.674
89172W        W81096  15.766  39.725  50.144
89173W        W81097   6.741  41.705  52.900
89174W        W81098  31.218  30.748  50.610
89175W        W81099  29.718  46.199  53.343
89176W        W81100   9.260  13.249  53.798
89177W        W81101  12.256   5.743  53.324
89178W        W81102  40.730  46.719  50.616
89179W        W81103  23.717   4.280  51.958
89180W        W81104   5.275  28.228  49.668
89181W        W81105  18.763   4.288  49.673
89182W        W81106  16.244  44.712  50.126
89183W        W81107  36.191  30.227  50.144
89184W        W81108  23.255  30.716  53.318
89185W        W81109  36.208  34.233  50.160
89186W        W81110  21.248   9.773  49.702
89187W        W81111  20.236  14.230  53.798
89188W        W81112  41.723  33.711  50.136
89189W        W81113   0.296   5.254  53.799
89190W        W81114   9.739  16.257  49.675
89191W        W81115  38.701  19.732  52.889
89192W        W81116  24.710  10.273  53.797
89193W        W81117  19.722  28.737  51.515
89194W        W81118  11.252  34.205  50.138
89195W        W81119  25.729  26.230  49.680
89196W        W81120  15.268   2.789  52.896
89197W        W81121   6.274  47.686  53.326
89198W        W81122   6.764  17.732  51.069
89199W        W81123  43.708  37.709  52.884
89200W        W81124  47.188  11.757  51.520
89201W        W81125  16.769   8.742  51.960
89202W        W81126  42.210   7.748  53.810
89203W        W81127  34.234   5.257  51.493
89204W        W81128  25.733  46.698  51.969
89205W        W81129  34.708  23.223  51.056
89206W        W81130  14.243  24.215  50.609
89207W        W81131   0.299  20.260  52.427
89208W        W81132   0.257  41.183  50.586
89209W        W81133  15.747  40.691  50.158
89210W        W81134  41.699  45.721  52.405
89211W        W81135   4.281  43.725  53.353
89212W        W81136   0.777   0.254  51.046
89213W        W81137  25.716  31.722  51.048
89214W        W81138  46.177  14.769  53.327
89215W        W81139  38.233   4.290  52.431
89216W        W81140  30.724  19.250  51.528
89217W        W81141  11.747  34.720  52.422
89218W        W81142  42.693   1.276  51.524
89219W        W81143  41.202  11.236  52.405
89220W        W81144  23.739  19.235  53.789
89221W        W81145  31.224  44.720  50.588
89222W        W81146  26.212  16.762  49.673
89223W        W81147  11.780  35.230  52.867
89224W        W81148  40.699  41.195  50.125
89225W        W81149  29.716  37.201  53.817
89226W        W81150  28.731   7.780  49.670
89227W        W81151  37.693  43.682  51.075
89228W        W81152   9.278  44.205  52.419
89229W        W81153  45.218  14.252  50.128
89230W        W81154  10.260  41.226  50.601
89231W        W81155  13.253  23.739  50.611
89232W        W81156  48.192  18.269  53.351
89233W        W81157  28.234   0.759  53.350
89234W        W81158  42.681  25.716  51.532
89235W        W81159  42.196  48.210  53.350
89236W        W81160  47.713  13.276  50.611
89237W        W81161  14.261   4.792  50.591
89238W        W81162  37.220   1.753  51.513
89239W        W81163   3.246  13.739  50.150
89240W        W81164  34.203  26.745  49.688
89241W        W81165  33.217   0.772  51.041
89242W        W81166  40.220  34.201  51.955
89243W        W81167  46.704   8.745  51.056
89244W        W81168  10.272  45.694  53.773
89245W        W81169   4.260  14.258  52.865
89246W        W81170  12.243  30.747  52.867
89247W        W81171  34.741  37.230  51.988
89248W        W81172  30.741   9.270  52.407
89249W        W81173  36.716  14.728  51.048
89250W        W81174  25.709   4.279  51.531
89251W        W81175  45.190  19.224  51.962
89252W        W81176   6.780  45.196  52.416
89253W        W81177  25.221   4.758  52.874
89254W        W81178   3.775  29.248  53.322
89255W        W81179  35.692  13.754  49.696
89256W        W81180  47.703  26.234  49.688
89257W        W81181   5.768  33.203  51.970
89258W        W81182  22.262   8.275  51.986
89259W        W81183  35.730  25.243  52.432
89260W        W81184  23.743  17.765  51.498
89261W        W81185  25.251   2.250  51.970
89262W        W81186  45.694  12.271  52.433
89263W        W81187  39.698  14.742  51.967
89264W        W81188   4.757  22.248  52.417
89265W        W81189  29.251  47.683  52.404
89266W        W81190  40.693   8.270  51.515
89267W        W81191   7.783  20.244  51.053
89268W        W81192  24.737  32.738  50.131
89269W        W81193  46.690  25.754  50.132
89270W        W81194  11.268  29.238  50.157
89271W        W81195  33.198   4.281  53.359
89272W        W81196  26.733  21.720  52.403
89273W        W81197  21.231  37.191  53.788
89274W        W81198  13.760  31.712  49.692
89275W        W81199  29.705  25.728  53.810
89276W        W81200  35.692  48.172  53.811
89277W        W81201  25.719  26.729  53.790
89278W        W81202  43.203  24.224  51.971
89279W        W81203  40.214  10.242  52.404
89280W        W81204  29.737  36.718  51.502
89281W        W81205   2.253  16.746  51.987
89282W        W81206  26.715   4.280  51.073
89283W        W81207  29.214  37.208  52.432
89284W        W81208   0.278  27.241  50.602
89285W        W81209   9.269  32.210  51.521
89286W        W81210  42.704   4.779  53.329
89287W        W81211  46.710  13.236  50.159
89288W        W81212  20.723  31.733  52.418
89289W        W81213  22.731  20.758  50.603
89290W        W81214  27.713  28.247  51.493
89291W        W81215  28.715   4.286  49.703
89292W        W81216  17.737  15.724  51.990
89293W        W81217  42.687  38.726  51.494
89294W        W81218   2.752  32.208  53.324
89295W        W81219  46.710   5.747  51.055
89296W        W81220  47.718  39.224  51.493
89297W        W81221  27.230  14.268  51.061
89298W        W81222  14.260  38.697  53.353
89299W        W81223  18.259  42.699  51.508
89300W        W81224   1.290  35.215  49.669
89301W        W81225   1.283   4.762  52.881
89302W        W81226  47.221  42.701  51.949
89303W        W81227  43.696  31.717  51.503
89304W        W81228  43.195  30.704  53.790
89305W        W81229  31.724  48.188  51.530
89306W        W81230  10.266  28.719  50.617
89307W        W81231   2.749  38.215  53.798
89308W        W81232   1.286  11.248  50.123
89309W        W81233   2.776  22.247  51.497
89310W        W81234  10.272  34.715  50.583
89311W        W81235   9.753   2.275  52.890
89312W        W81236  10.740  45.220  52.446
89313W        W81237   6.748  48.171  53.805
89314W        W81238   6.273  36.726  51.049
89315W        W81239   6.748  26.712  50.604
89316W        W81240   1.772  40.691  49.666
89317W        W81241  27.249  10.263  52.424
89318W        W81242  11.755  22.720  53.774
89319W        W81243  22.242   3.259  52.875
89320W        W81244   3.780  14.759  51.529
89321W        W81245  40.718  26.755  50.122
89322W        W81246  10.274  47.189  52.864
89323W        W81247   1.296  40.732  53.332
89324W        W81248  31.706  12.749  51.079
89325W        W81249  27.244   6.757  51.057
89326W        W81250  46.194  43.692  53.319
89327W        W81251  16.738   9.744  49.701
89328W        W81252  35.708  26.224  50.591
89329W        W81253   4.774  22.218  50.617
89330W        W81254  23.736   5.741  50.123
89331W        W81255  21.243  13.251  50.578
89332W        W81256  21.757  46.676  51.038
89333W        W81257  23.727  21.250  52.410
89334W        W81258   2.263   0.795  49.691
89335W        W81259  20.240  44.181  52.873
89336W        W81260  29.737  24.717  51.958
89337W        W81261  13.232  31.730  53.328
89338W        W81262  46.712  32.204  52.884
89339W        W81263  17.239  22.260  52.448
89340W        W81264   4.275  15.249  53.780
89341W        W81265   7.769  35.740  49.701
89342W        W81266  19.261  44.718  49.706
89343W        W81267  15.739   8.274  51.054
89344W        W81268  44.201   6.778  51.070
89345W        W81269  19.256  27.731  49.700
89346W        W81270  28.724  36.728  52.890
89347W        W81271  15.273  24.211  49.669
89348W        W81272   6.767  31.213  51.047
89349W        W81273  44.698  26.256  53.323
89350W        W81274  46.187  19.744  50.147
89351W        W81275  19.252   3.271  52.900
89352W        W81276   0.787   9.264  50.160
89353W        W81277  40.201  39.704  50.621
89354W        W81278  30.230  47.180  51.076
89355W        W81279   8.743  28.712  52.436
89356W        W81280  20.241   3.262  53.325
89357W        W81281   2.291  11.270  53.347
89358W        W81282  17.721   4.756  53.786
89359W        W81283  35.737  30.212  53.789
89360W        W81284  24.230  25.229  50.578
89361W        W81285  37.709   4.757  52.445
89362W        W81286  17.253  22.247  51.949
89363W        W81287  30.703   1.283  52.407
89364W        W81288  28.238  41.232  49.675
89365W        W81289   8.279  19.751  53.334
89366W        W81290  25.746  14.760  50.127
89367W        W81291  24.727  21.723  51.533
89368W        W81292  33.727  24.232  49.708
89369W        W81293   0.290   7.754  52.896
89370W        W81294  13.273  42.726  49.696
89371W        W81295  27.211  12.256  52.419
89372W        W81296   5.266  33.219  51.049
89373W        W81297  23.722  28.241  51.958
89374W        W81298  38.210  10.275  51.966
89375W        W81299  40.693  26.736  52.897
89376W        W81300   0.285  38.193  51.991
89377W        W81301  23.731  19.732  50.620
89378W        W81302   6.247  42.191  50.133
89379W        W81303  18.737  40.196  51.056
89380W        W81304   8.770  11.759  51.524
89381W        W81305  21.263  35.721  51.506
89382W        W81306  35.706  26.720  52.434
89383W        W81307   7.779  27.731  52.411
89384W        W81308   9.775  28.745  52.411
89385W        W81309  27.749   3.253  51.529
89386W        W81310  29.744   4.744  50.137
89387W        W81311   1.291  46.699  53.358
89388W        W81312   5.743  22.246  51.968
89389W        W81313  37.225  34.708  51.493
89390W        W81314  16.766   5.786  50.142
89391W        W81315  17.750  45.206  50.132
89392W        W81316  45.715   4.754  51.510
89393W        W81317  19.739  13.740  52.447
89394W        W81318  24.757  17.229  53.320
89395W        W81319   0.288  43.723  53.799
89396W        W81320   1.278  47.199  53.811
89397W        W81321  23.229  10.775  51.046
89398W        W81322  28.729   2.283  51.534
89399W        W81323  25.214  22.238  51.062
89400W        W81324  44.191   0.786  52.879
89401W        W81325   7.753  31.222  53.773
89402W        W81326  43.199   5.770  51.061
89403W        W81327  14.276  28.215  52.436
89404W        W81328  32.730  43.702  52.866
89405W        W81329  12.254  10.779  50.612
89406W        W81330  23.746  41.192  51.045
89407W        W81331  22.744   9.271  49.709
89408W        W81332  20.717   0.257  52.862
89409W        W81333  13.232  44.724  51.954
89410W        W81334  39.720  33.709  53.801
89411W        W81335   2.747   8.741  53.803
89412W        W81336  29.714  15.733  52.890
89413W        W81337  30.249  37.728  51.055
89414W        W81338   9.264  19.739  53.781
89415W        W81339  21.225  29.742  51.499
89416W        W81340   1.296   5.246  50.144
89417W        W81341  11.763   2.249  50.620
89418W        W81342  44.183  46.191  53.345
89419W        W81343   8.259   4.289  53.794
89420W        W81344  45.203  43.216  51.505
89421W        W81345  10.759  30.230  50.159
89422W        W81346  17.724  40.223  52.433
89423W        W81347  20.749  13.263  53.334
89424W        W81348  47.179  14.765  50.153
89425W        W81349  44.707  33.733  50.149
89426W        W81350  28.246  33.708  53.788
89427W        W81351  39.231  12.254  53.798
89428W        W81352  15.750  42.696  53.788
89429W        W81353  12.246  29.213  50.613
89430W        W81354  10.233   8.773  51.053
89431W        W81355  46.182   7.785  52.443
89432W        W81356  21.231  10.759  53.772
89433W        W81357  26.231  21.746  50.147
89434W        W81358  16.263  22.237  49.702
89435W        W81359  31.698   5.274  53.349
89436W        W81360  29.750  15.757  50.137
89437W        W81361  47.685  30.246  51.045
89438W        W81362  41.714  17.251  53.322
89439W        W81363  14.242  24.226  52.865
89440W        W81364  23.717  41.700  51.533
89441W        W81365  34.706  34.732  51.068
89442W        W81366   1.753  28.210  53.361
89443W        W81367  44.679  12.737  52.904
89444W        W81368  41.200  42.208  51.976
89445W        W81369   1.768  30.209  52.428
89446W        W81370  16.742  11.236  53.319
89447W        W81371  21.215  23.737  50.581
89448W        W81372  19.760  32.718  51.963
89449W        W81373  36.194  14.251  53.317
89450W        W81374  42.181  41.208  51.522
89451W        W81375   2.280   7.262  52.862
89452W        W81376  10.742  40.223  53.793
89453W        W81377  23.714  43.195  51.078
89454W        W81378  24.728  30.228  52.443
89455W        W81379   1.784  23.730  51.531
89456W        W81380  22.258  21.759  52.883
89457W        W81381  44.702  30.242  49.671
89458W        W81382  45.224  28.749  51.949
89459W        W81383  35.202  46.687  53.342
89460W        W81384  22.729  22.726  51.956
89461W        W81385  29.728   0.266  52.867
89462W        W81386  19.758  10.770  52.875
89463W        W81387  13.741  35.737  51.036
89464W        W81388  40.195  40.710  52.864
89465W        W81389  10.766  41.720  53.322
89466W        W81390  24.211  42.688  50.608
89467W        W81391  11.276  18.265  49.682
89468W        W81392  30.725  25.747  52.441
89469W        W81393  10.280  24.225  51.985
89470W        W81394  47.717   4.787  51.064
89471W        W81395  40.698  25.716  53.807
89472W        W81396   6.246  16.769  51.494
89473W        W81397  48.179  39.193  53.804
89474W        W81398  30.203   0.279  52.894
89475W        W81399  11.736  44.194  52.871
89476W        W81400   9.262  10.264  51.490
89477W        W81401  46.675  21.717  51.502
89478W        W81402  23.719  24.214  49.696
89479W        W81403   3.264  44.719  51.518
89480W        W81404   7.282  48.201  50.605
89481W        W81405   1.278  29.242  50.149
89482W        W81406  36.197  12.772  51.968
89483W        W81407  11.748  24.713  49.680
89484W        W81408   1.763  43.181  49.705
89485W        W81409   7.787  16.768  52.406
89486W        W81410  31.730   2.266  49.709
89487W        W81411  48.208   4.278  51.949
89488W        W81412  25.233   9.282  51.060
89489W        W81413  35.214  33.703  50.581
89490W        W81414  20.742  29.723  49.677
89491W        W81415   8.750  26.241  53.339
89492W        W81416  32.224  47.220  53.334
89493W        W81417  41.718   0.290  53.361
89494W        W81418  10.750   3.274  51.968
89495W        W81419  23.723  39.220  51.964
89496W        W81420  21.715  19.221  53.804
89497W        W81421  26.722  42.222  50.136
89498W        W81422  42.718  15.232  52.861
89499W        W81423   8.284  12.268  52.412
89500W        W81424  46.176   0.268  52.429
89501W        W81425  35.208  36.704  49.696
89502W        W81426  26.725  16.246  51.529
89503W        W81427  33.729  20.226  51.971
89504W        W81428  43.680   7.753  50.614
89505W        W81429  45.199  34.202  51.947
89506W        W81430  26.246  46.220  52.871
89507W        W81431  45.698   4.250  51.528
89508W        W81432  30.714  34.694  53.779
89509W        W81433  18.227   4.774  49.710
89510W        W81434  23.748   3.780  51.523
89511W        W81435  21.218  28.722  50.158
89512W        W81436  12.749  44.721  50.132
89513W        W81437  31.240  29.204  50.596
89514W        W81438  19.752  44.677  53.789
89515W        W81439   1.289  48.185  51.064
89516W        W81440  40.711  47.174  53.352
89517W        W81441  44.210  17.748  51.047
89518W        W81442  22.214  46.702  53.358
89519W        W81443  40.213   5.266  52.895
89520W        W81444  22.727  34.714  53.325
89521W        W81445  15.245  21.261  51.051
89522W        W81446  19.742   0.260  51.516
89523W        W81447  37.699  25.749  52.886
89524W        W81448  45.716   8.276  50.577
89525W        W81449   5.261  13.243  53.811
89526W        W81450  20.731  38.233  51.044
89527W        W81451  42.707  42.213  51.534
89528W        W81452  36.193   7.247  50.585
89529W        W81453  21.238  31.211  51.502
89530W        W81454  40.200  20.223  50.162
89531W        W81455  26.747  28.734  53.340
89532W        W81456  42.688  31.235  50.622
89533W        W81457   2.264  24.241  51.969
89534W        W81458  28.733   8.285  52.884
89535W        W81459   9.781  43.713  51.504
89536W        W81460  24.756  45.679  50.140
89537W        W81461  45.687  33.218  51.499
89538W        W81462  10.236  12.772  49.691
89539W        W81463  38.229  32.244  51.035
89540W        W81464  42.727  10.261  51.962
89541W        W81465  33.215  44.191  52.902
89542W        W81466  22.750  30.725  49.693
89543W        W81467  32.715  34.693  51.037
89544W        W81468  27.254   1.759  51.055
89545W        W81469  33.240  40.194  51.048
89546W        W81470  35.696  10.234  51.053
89547W        W81471   4.278   5.753  51.063
89548W        W81472   0.785   9.242  51.957
89549W        W81473  23.733  30.241  50.145
89550W        W81474  34.739  31.210  49.684
89551W        W81475  12.264   2.750  51.524
89552W        W81476  23.750  40.193  50.124
89553W        W81477  27.741  40.700  53.347
89554W        W81478  43.191  41.226  49.673
89555W        W81479  11.775  18.737  51.525
89556W        W81480  18.249  23.251  53.774
89557W        W81481  46.222  29.210  53.776
89558W        W81482  18.257  21.239  53.340
89559W        W81483  42.207  31.737  50.146
89560W        W81484  44.187  48.199  53.333
89561W        W81485  37.704   8.771  49.670
89562W        W81486  17.239  20.738  52.876
89563W        W81487  22.731   2.787  50.582
89564W        W81488  33.234  21.242  49.666
89565W        W81489   1.262  28.711  49.672
89566W        W81490  47.677  11.739  49.705
89567W        W81491   0.796  39.713  50.577
89568W        W81492  37.700  43.683  50.612
89569W        W81493  38.714  23.717  51.962
89570W        W81494  35.719  41.182  51.040
89571W        W81495  27.740  17.753  53.339
89572W        W81496  30.700   3.771  51.952
89573W        W81497  40.230  16.746  51.040
89574W        W81498  35.737  20.240  53.803
89575W        W81499   1.283  34.703  51.980
89576W        W81500  33.199  27.230  51.981
89577W        W81501  22.260   0.781  51.967
89578W        W81502   9.265   5.779  52.904
89579W        W81503  24.723  18.235  51.519
89580W        W81504   9.753  12.770  51.986
89581W        W81505  19.249   8.750  51.947
89582W        W81506  43.198  35.240  50.127
89583W        W81507   2.776  30.728  51.949
89584W        W81508  23.234  33.202  51.494
89585W        W81509   0.767  43.227  53.789
89586W        W81510  39.212  12.246  50.129
89587W        W81511  11.757   9.771  50.587
89588W        W81512  19.735  46.683  49.690
89589W        W81513   5.271   0.285  52.404
89590W        W81514  30.231  26.720  52.435
89591W        W81515   3.253  40.207  51.948
89592W        W81516  21.259  18.263  52.430
89593W        W81517  37.705   8.243  51.524
89594W        W81518  45.198  32.240  51.512
89595W        W81519  14.238  41.197  50.150
89596W        W81520  44.707  33.704  52.870
89597W        W81521  24.726   9.280  50.155
89598W        W81522  33.718  34.232  49.686
89599W        W81523  43.195  19.722  53.342
89600W        W81524  25.730  38.190  52.411
89601W        W81525  42.688  16.263  52.428
89602W        W81526  35.713  32.743  51.955
89603W        W81527  14.238  14.241  53.783
89604W        W81528  27.733  31.244  50.584
89605W        W81529  29.245  29.707  50.133
89606W        W81530  36.737  10.772  51.532
89607W        W81531  24.744   9.768  53.327
89608W        W81532   8.273  36.718  51.047
89609W        W81533  35.732  37.690  50.129
89610W        W81534  16.760  16.748  52.439
89611W        W81535  20.266  11.739  50.132
89612W        W81536  43.194  24.711  51.071
89613W        W81537  28.238  26.232  49.703
89614W        W81538   3.752  42.215  51.988
89615W        W81539  44.214   2.769  50.578
89616W        W81540  44.694   8.237  51.509
89617W        W81541  11.754  28.213  52.874
89618W        W81542  48.207   6.778  51.075
89619W        W81543  45.677  38.187  50.595
89620W        W81544  35.221  36.204  50.581
89621W        W81545  28.210  15.727  50.155
89622W        W81546  41.716  11.731  50.605
89623W        W81547  23.746  29.219  52.901
89624W        W81548  32.240  36.225  53.785
89625W        W81549   1.786  41.705  49.687
89626W        W81550  26.208  12.768  51.980
89627W        W81551   8.278  14.240  51.064
89628W        W81552  39.204  42.197  52.404
89629W        W81553   1.261   4.774  50.615
89630W        W81554  39.194  39.188  52.446
89631W        W81555  30.700   9.260  51.050
89632W        W81556   5.783   3.765  49.689
89633W        W81557   3.294  14.238  50.580
89634W        W81558  16.755  42.687  51.968
89635W        W81559  20.233  35.718  53.337
89636W        W81560  19.220   5.282  51.514
89637W        W81561   2.747  45.202  52.881
89638W        W81562  46.685  47.689  50.143
89639W        W81563  13.276  13.249  51.532
89640W        W81564  39.733  31.705  51.978
89641W        W81565  10.744  40.192  51.522
89642W        W81566  10.235  11.264  51.496
89643W        W81567   3.789  32.216  50.149
89644W        W81568  12.239  28.209  50.621
89645W        W81569  14.767  17.751  53.777
89646W        W81570  25.745  24.242  51.524
89647W        W81571  18.720  45.197  51.532
89648W        W81572  24.743  42.721  51.507
89649W        W81573  18.732  37.720  51.037
89650W        W81574   8.774  11.281  51.963
89651W        W81575  16.752  29.205  53.339
89652W        W81576  10.254  20.756  50.129
89653W        W81577  32.703  45.721  51.041
89654W        W81578   4.289  33.206  50.137
89655W        W81579   0.263  16.748  50.130
89656W        W81580  20.234  40.705  50.590
89657W        W81581   4.772  29.732  53.322
89658W        W81582  31.745  40.216  53.775
89659W        W81583  25.724  33.705  52.866
89660W        W81584  34.242   4.261  50.615
89661W        W81585  38.221  32.244  53.790
89662W        W81586   9.277  16.750  53.346
89663W        W81587  24.220  19.756  52.429
89664W        W81588  26.208  10.778  49.668
89665W        W81589  12.235   7.246  53.326
89666W        W81590  43.701  15.259  51.971
89667W        W81591  18.767  18.226  50.138
89668W        W81592  27.738  40.204  52.439
89669W        W81593   1.762  42.725  50.161
89670W        W81594  25.741  19.729  53.332
89671W        W81595  24.755  20.233  52.409
89672W        W81596  22.239  20.743  50.618
89673W        W81597  33.226  43.184  53.357
89674W        W81598  16.264  28.706  51.492
89675W        W81599  41.210  21.748  51.968
89676W        W81600  46.176   4.274  51.522
89677W        W81601   2.257  29.726  49.681
89678W        W81602  10.754  39.705  51.509
89679W        W81603  29.215   7.252  52.862
89680W        W81604  28.207  28.705  51.956
89681W        W81605  12.235  27.241  50.151
89682W        W81606  25.248   5.280  51.073
89683W        W81607  37.695  10.251  51.042
89684W        W81608  34.218  25.226  51.039
89685W        W81609  40.186  12.764  49.666
89686W        W81610  30.743  26.740  53.815
89687W        W81611  39.197  21.254  52.415
89688W        W81612  22.260   1.766  49.697
89689W        W81613   6.259  39.212  53.797
89690W        W81614  13.271  16.736  53.338
89691W        W81615  11.734   5.789  51.045
89692W        W81616  16.752  29.236  51.072
89693W        W81617   1.753   5.789  52.411
89694W        W81618   8.771  11.762  52.418
89695W        W81619  27.246  26.219  49.691
89696W        W81620   6.777   3.262  53.791
89697W        W81621  39.223  10.268  53.347
89698W        W81622   8.746  26.707  51.980
89699W        W81623  22.756   4.288  51.051
89700W        W81624  47.203  39.234  53.319
89701W        W81625  25.256  46.197  52.871
89702W        W81626  19.721  12.730  53.324
89703W        W81627  16.251  10.777  49.686
89704W        W81628  16.732   5.755  53.332
89705W        W81629  31.730  38.711  51.501
89706W        W81630  15.274  14.728  52.412
89707W        W81631  42.187  47.700  52.433
89708W        W81632  21.226  22.743  51.074
89709W        W81633   2.294  38.199  52.902
89710W        W81634  45.202  40.710  51.507
89711W        W81635  24.739  35.217  51.529
89712W        W81636  15.746  36.219  51.054
89713W        W81637  26.210  43.192  50.602
89714W        W81638   0.291  28.721  52.428
89715W        W81639  10.759  14.751  52.407
89716W        W81640  39.230  47.681  49.707
89717W        W81641  45.707  31.702  49.677
89718W        W81642   2.249  19.764  53.815
89719W        W81643  20.229  16.267  49.704
89720W        W81644  38.199  29.240  50.596
89721W        W81645  38.229  21.229  53.341
89722W        W81646  23.239   9.268  53.327
89723W        W81647  10.282  32.230  53.799
89724W        W81648  17.256  24.231  52.880
89725W        W81649  28.735  42.698  52.430
89726W        W81650  27.242   4.768  52.876
89727W        W81651  39.194  16.771  53.789
89728W        W81652  29.723  29.232  49.664
89729W        W81653  25.223  18.225  49.708
89730W        W81654  34.201  20.759  50.595
89731W        W81655  40.188  38.230  51.959
89732W        W81656  37.699  38.218  53.818
89733W        W81657  10.270  38.229  50.137
89734W        W81658  17.238  45.202  53.332
89735W        W81659   8.776   4.753  53.784
89736W        W81660  38.715  39.700  51.981
89737W        W81661  28.708  27.749  51.532
89738W        W81662  46.700  45.217  53.775
89739W        W81663  47.222  45.700  49.706
89740W        W81664   9.275   7.248  51.959
89741W        W81665  42.215  42.211  51.523
89742W        W81666  26.748  19.738  53.321
89743W        W81667  19.750  23.241  50.121
89744W        W81668  28.237  15.251  50.124
89745W        W81669  36.204  18.224  53.319
89746W        W81670  37.200  24.256  52.903
89747W        W81671  31.712  45.218  49.707
89748W        W81672  20.761  32.715  52.405
89749W        W81673  39.713  16.237  52.446
89750W        W81674  48.208  37.207  51.054
89751W        W81675  34.700  44.701  53.355
89752W        W81676  12.751  21.733  51.039
89753W        W81677  15.262  40.729  51.968
89754W        W81678  43.189  13.753  50.155
89755W        W81679  11.738   7.262  53.794
89756W        W81680  43.210   3.257  52.444
89757W        W81681  27.221  38.210  51.079
89758W        W81682   2.787  16.748  51.960
89759W        W81683  38.232  11.252  52.410
89760W        W81684  10.774  32.204  52.441
89761W        W81685  17.266  14.258  51.523
89762W        W81686  44.217   5.762  50.158
89763W        W81687  40.706  39.730  53.815
89764W        W81688   0.750  45.676  50.600
89765W        W81689  43.224  18.251  52.875
89766W        W81690  34.213  43.228  51.063
89767W        W81691  42.724  28.747  53.342
89768W        W81692  10.736  47.715  52.405
89769W        W81693   7.749   0.287  50.617
89770W        W81694  17.266  47.681  51.078
89771W        W81695  44.223  36.209  50.598
89772W        W81696   0.298  35.710  53.332
89773W        W81697  35.706  24.748  51.535
89774W        W81698   7.767  31.709  49.669
89775W        W81699   0.295  16.243  50.614
89776W        W81700  14.754   7.757  50.621
89777W        W81701   3.744  41.215  49.701
89778W        W81702  22.744   7.779  51.050
89779W        W81703   5.773  39.205  53.350
89780W        W81704   2.259  23.723  53.349
89781W        W81705  40.701  28.724  50.138
89782W        W81706  32.733  37.219  53.341
89783W        W81707   3.787   2.767  50.156
89784W        W81708  17.764  11.245  51.061
89785W        W81709  47.173  19.734  50.581
89786W        W81710  30.211  36.235  52.867
89787W        W81711  22.255  10.758  51.509
89788W        W81712  26.215  25.239  51.490
89789W        W81713  19.264   6.243  50.610
89790W        W81714  23.759  45.677  51.061
89791W        W81715  35.200  26.729  49.701
89792W        W81716   9.746   1.252  50.166
89793W        W81717  14.760  40.215  53.360
89794W        W81718  42.204  18.244  50.135
89795W        W81719  36.734  46.203  51.039
89796W        W81720  46.190  38.236  53.780
89797W        W81721  46.711   9.268  51.964
89798W        W81722  17.268  46.717  50.598
89799W        W81723  35.225  39.726  50.594
89800W        W81724  10.739   2.795  51.037
89801W        W81725  30.724  22.742  52.444
89802W        W81726  45.682   1.262  51.042
89803W        W81727  26.209   3.282  50.604
89804W        W81728  29.235  21.223  51.051
89805W        W81729  27.744  36.714  52.879
89806W        W81730  33.733  28.232  53.785
89807W        W81731   5.774   2.262  50.157
89808W        W81732  10.733   4.256  53.817
89809W        W81733  41.213  47.186  50.581
89810W        W81734  46.691  22.243  50.129
89811W        W81735  40.705  27.219  51.500
89812W        W81736  29.206   8.767  53.359
89813W        W81737   7.744  46.688  53.806
89814W        W81738  26.254  35.227  51.490
89815W        W81739  23.717   9.274  52.904
89816W        W81740  10.750  46.211  52.888
89817W        W81741  29.710  44.212  53.339
89818W        W81742   3.793  43.214  52.421
89819W        W81743  39.709  11.731  52.902
89820W        W81744   5.781  34.713  53.799
89821W        W81745  42.207  35.226  49.701
89822W        W81746  33.231   0.777  53.817
89823W        W81747  43.712   1.759  50.610
89824W        W81748  17.758  35.731  51.057
89825W        W81749  40.220  24.257  52.865
89826W        W81750  13.275   1.254  50.607
89827W        W81751   4.260   0.749  52.420
89828W        W81752  23.247  27.710  52.870
89829W        W81753  13.756  20.250  50.123
89830W        W81754   7.769  29.220  49.701
89831W        W81755   8.250  37.212  51.043
89832W        W81756  32.705  45.708  51.516
89833W        W81757  47.201  20.732  51.517
89834W        W81758  32.199  11.767  53.801
89835W        W81759  17.747  40.704  50.161
89836W        W81760   6.278   9.753  50.617
89837W        W81761  45.679   0.257  52.862
89838W        W81762   0.272  22.755  50.125
89839W        W81763  44.205   6.254  51.075
89840W        W81764  17.262  43.690  53.783
89841W        W81765  25.757  46.690  53.335
89842W        W81766  20.740  12.772  51.498
89843W        W81767  43.209  27.238  52.878
89844W        W81768  45.210  35.204  52.412
89845W        W81769  26.751   3.779  53.785
89846W        W81770  43.221  23.758  50.161
89847W        W81771  27.751  46.182  53.348
89848W        W81772   7.750  12.241  51.498
89849W        W81773  38.697  16.736  53.809
89850W        W81774  21.748   3.776  53.806
89851W        W81775  44.201  10.280  52.902
89852W        W81776  34.243   7.240  50.593
89853W        W81777  36.233   6.283  53.776
89854W        W81778  33.718  16.264  53.339
89855W        W81779  21.228  32.200  53.347
89856W        W81780  36.734   1.297  53.323
89857W        W81781  32.711  19.733  52.901
89858W        W81782   4.256  11.270  53.817
89859W        W81783  21.751   7.752  53.814
89860W        W81784  29.224  39.733  53.785
89861W        W81785  26.242   6.287  53.793
89862W        W81786  15.730   6.776  51.530
89863W        W81787  24.230  47.197  53.807
89864W        W81788  42.727  11.739  52.876
89865W        W81789   4.750  28.752  51.072
89866W        W81790  32.726  34.202  52.876
89867W        W81791   4.283  44.715  49.677
89868W        W81792  46.717  11.260  53.326
89869W        W81793  38.229  43.691  50.125
89870W        W81794  32.246  26.727  50.580
89871W        W81795   2.755  18.254  49.692
89872W        W81796   6.258  32.222  49.673
89873W        W81797  48.185  22.722  49.667
89874W        W81798  34.720   6.775  53.349
89875W        W81799  47.709  46.190  51.948
89876W        W81800   1.768  10.253  50.133
89877W        W81801  27.752  38.719  53.790
89878W        W81802  15.751  34.211  53.787
89879W        W81803  10.248   1.755  52.429
89880W        W81804   2.763   1.281  51.987
89881W        W81805  30.749  43.181  52.417
89882W        W81806   7.252  14.750  52.876
89883W        W81807  34.234   3.752  51.962
89884W        W81808  41.208  13.270  52.448
89885W        W81809  36.712   1.265  50.148
89886W        W81810  35.740   4.269  50.607
89887W        W81811  37.198   7.757  51.492
89888W        W81812   3.290  32.720  51.056
89889W        W81813  47.183  47.197  52.429
89890W        W81814  18.266  29.749  51.511
89891W        W81815  16.739  28.727  53.795
89892W        W81816   0.766  44.704  49.696
89893W        W81817  24.711  26.749  50.622
89894W        W81818   1.764  30.237  51.500
89895W        W81819  47.707  23.717  50.592
89896W        W81820  18.259  30.705  49.690
89897W        W81821  14.245  24.757  53.805
89898W        W81822  35.716  24.744  49.709
89899W        W81823  11.256   3.286  53.813
89900W        W81824  16.228  34.211  51.503
89901W        W81825  38.189  39.727  53.327
89902W        W81826  46.193   6.241  52.861
89903W        W81827   3.779   4.259  51.501
89904W        W81828  10.746   3.254  51.511
89905W        W81829  17.263  27.736  51.512
89906W        W81830  43.218  12.766  52.441
89907W        W81831  11.767  48.199  52.885
89908W        W81832  24.725  30.749  52.426
89909W        W81833  37.194  31.235  51.056
89910W        W81834  19.763  13.264  51.048
89911W        W81835   2.757  13.733  53.781
89912W        W81836  22.730  20.253  53.804
89913W        W81837  31.224   3.768  49.688
89914W        W81838  15.731  28.736  50.606
89915W        W81839  15.739   9.739  53.353
89916W        W81840  46.715  28.216  53.810
89917W        W81841   8.254   1.285  50.614
89918W        W81842  30.243  48.213  50.136
89919W        W81843   9.263  24.732  52.443
89920W        W81844  31.728  24.252  51.955
89921W        W81845  42.693  48.184  49.692
89922W        W81846   5.787   4.244  52.860
89923W        W81847  38.212   2.770  50.126
89924W        W81848  47.195   4.787  53.340
89925W        W81849   2.277  13.735  51.067
89926W        W81850   2.773   1.748  51.038
89927W        W81851  32.199  14.765  53.804
89928W        W81852  15.262  35.202  50.582
89929W        W81853  34.204   2.253  51.532
89930W        W81854  16.245  37.690  52.438
89931W        W81855  39.208  39.189  53.809
89932W        W81856  23.233  22.217  52.428
89933W        W81857  22.218   7.766  52.437
89934W        W81858  20.228  30.709  51.039
89935W        W81859   5.244  21.716  50.607
89936W        W81860  36.697  37.207  53.797
89937W        W81861   2.294  43.183  51.970
89938W        W81862  20.761  34.228  49.678
89939W        W81863  44.685   3.771  50.599
89940W        W81864  48.209  15.771  50.613
89941W        W81865  21.225  45.687  53.326
89942W        W81866  34.231  24.759  53.797
89943W        W81867  18.764   9.778  50.589
89944W        W81868  36.693  14.264  51.071
89945W        W81869  36.232   5.759  51.069
89946W        W81870  24.755  35.724  53.815
89947W        W81871  27.732  40.227  51.512
89948W        W81872  46.719  20.222  49.671
89949W        W81873   0.778  10.742  53.817
89950W        W81874  14.271  47.210  53.330
89951W        W81875  24.255  37.716  53.361
89952W        W81876  25.243   8.276  51.989
89953W        W81877  36.190   8.270  49.668
89954W        W81878  20.760  18.228  49.707
89955W        W81879  24.750  16.770  50.604
89956W        W81880  24.244  22.235  51.512
89957W        W81881  25.735   3.769  51.976
89958W        W81882   5.257  35.228  53.812
89959W        W81883  39.704  40.692  52.900
89960W        W81884  18.739  16.767  52.434
89961W        W81885  37.697  12.255  49.698
89962W        W81886  38.187  42.699  51.062
89963W        W81887  35.704  26.252  51.046
89964W        W81888  40.702  21.247  53.787
89965W        W81889  14.742   4.250  53.327
89966W        W81890  19.259  38.228  53.319
89967W        W81891  47.694   0.780  53.789
89968W        W81892  10.748  31.733  52.880
89969W        W81893  42.684  27.734  51.951
89970W        W81894  36.210  23.236  49.686
89971W        W81895  30.233  16.744  51.065
89972W        W81896  34.722  27.745  52.893
89973W        W81897  34.707  36.222  53.777
89974W        W81898  26.243  21.738  52.407
89975W        W81899  27.705  12.268  53.794
89976W        W81900  22.242  28.740  52.418
89977W        W81901   2.795  22.255  53.343
89978W        W81902  26.741   6.262  51.054
89979W        W81903  29.219  42.699  51.051
89980W        W81904   0.797  18.725  51.499
89981W        W81905   3.756   3.260  49.692
89982W        W81906  21.731  23.734  50.131
89983W        W81907  32.227  14.767  51.523
89984W        W81908  33.719  48.209  49.709
89985W        W81909   8.759  23.746  52.898
89986W        W81910  19.720   0.275  53.788
89987W        W81911  14.265  27.254  51.076
89988W        W81912  31.721  21.262  53.810
89989W        W81913   9.777  37.736  52.424
89990W        W81914  45.198  44.215  51.964
89991W        W81915  14.751  20.728  53.329
89992W        W81916  36.209  37.196  49.665
89993W        W81917  15.254  11.762  53.346
89994W        W81918  41.703   1.752  53.789
89995W        W81919   3.773  44.706  51.036
89996W        W81920  13.273  27.254  50.162
89997W        W81921  12.772  24.754  49.695
89998W        W81922  46.703  27.748  53.783
89999W        W81923  35.204  29.724  51.949
90000W        W81924  37.730   8.244  50.144
90001W        W81925  43.203  34.222  51.046
90002W        W81926  15.264  42.720  49.689
90003W        W81927  24.254  26.229  53.781
90004W        W81928   2.257  25.727  53.812
90005W        W81929  17.261  14.730  50.146
90006W        W81930  13.775  27.240  52.892
90007W        W81931  14.737  19.754  52.897
90008W        W81932  20.231  36.240  52.434
90009W        W81933  48.180  18.733  51.947
90010W        W81934  38.714   8.268  53.347
90011W        W81935  21.251  16.272  51.495
90012W        W81936  22.235  30.737  50.165
90013W        W81937  14.730  17.745  52.891
90014W        W81938  11.750  22.730  50.147
90015W        W81939   6.288  23.212  49.691
90016W        W81940  44.226  16.257  52.425
90017W        W81941   9.740  16.759  50.593
90018W        W81942  44.225   9.254  52.884
90019W        W81943  23.718  35.231  49.687
90020W        W81944   0.785  32.742  52.414
90021W        W81945  21.224  37.712  50.610
90022W        W81946  28.224   9.770  52.423
90023W        W81947  36.724   0.274  52.430
90024W        W81948  26.727  35.723  50.122
90025W        W81949  25.753   7.787  51.499
90026W        W81950  43.222   5.748  51.515
90027W        W81951   9.243  11.233  53.777
90028W        W81952  15.264  10.738  49.670
90029W        W81953   8.771  37.194  51.507
90030W        W81954  17.731  26.233  51.973
90031W        W81955  30.716   1.775  49.666
90032W        W81956  21.764  41.689  53.323
90033W        W81957  10.758  30.722  51.524
90034W        W81958  24.222  38.236  52.863
90035W        W81959  19.761   8.239  50.619
90036W        W81960  11.768   1.759  53.351
90037W        W81961   9.771  31.745  50.121
90038W        W81962  22.727  16.731  51.509
90039W        W81963   2.761  35.223  53.346
90040W        W81964  43.703  41.701  52.886
90041W        W81965   5.752  14.745  52.884
90042W        W81966  30.727  24.215  49.683
90043W        W81967  47.177   8.749  51.065
90044W        W81968  40.712  15.745  50.608
90045W        W81969   9.243  23.757  51.493
90046W        W81970  19.249  22.225  51.513
90047W        W81971  22.727  33.212  51.948
90048W        W81972  47.694  19.745  53.797
90049W        W81973  11.256  45.190  49.667
90050W        W81974   0.773  23.231  52.432
90051W        W81975  45.686  14.273  51.535
90052W        W81976  47.186  18.254  53.324
90053W        W81977  23.733  33.244  50.166
90054W        W81978  12.736  10.744  50.618
90055W        W81979  47.695   6.257  49.705
90056W        W81980  43.207  20.219  51.963
90057W        W81981   3.272   7.278  51.059
90058W        W81982  22.249  14.756  51.521
90059W        W81983  11.734  34.216  50.616
90060W        W81984  20.241  33.726  53.812
90061W        W81985  16.743   2.288  52.867
90062W        W81986  21.233  47.699  50.158
90063W        W81987  40.233  16.229  50.583
90064W        W81988  33.233  13.729  49.698
90065W        W81989  33.713   6.747  53.800
90066W        W81990  36.228  39.197  53.317
90067W        W81991   0.792  27.747  53.329
90068W        W81992  12.770  12.776  51.953
90069W        W81993  22.224  46.716  53.810
90070W        W81994  36.228  40.189  51.987
90071W        W81995  24.757  37.230  52.874
90072W        W81996   3.255  29.722  52.446
90073W        W81997  47.684  31.713  50.159
90074W        W81998  30.208   7.763  50.144
90075W        W81999  26.214  46.217  49.673
90076W        W82000   3.271   0.252  49.693
90077W        W82001  25.720   3.260  53.789
90078W        W82002  19.248  35.736  53.811
90079W        W82003  17.231   3.756  52.405
90080W        W82004  19.228  21.231  51.979
90081W        W82005   0.293  35.208  52.433
90082W        W82006  18.252  11.232  53.807
90083W        W82007  16.234  18.737  51.038
90084W        W82008   0.751   0.790  52.434
90085W        W82009   1.797  35.702  51.062
90086W        W82010  30.716  21.756  53.336
90087W        W82011   1.761  41.722  51.966
90088W        W82012  31.239  41.706  49.703
90089W        W82013  13.273  13.264  49.700
90090W        W82014   8.754  18.250  52.866
90091W        W82015  23.224  28.245  53.776
90092W        W82016   2.263  31.730  52.416
90093W        W82017  42.192   9.236  52.445
90094W        W82018  18.242  18.741  50.619
90095W        W82019  20.762  12.761  50.161
90096W        W82020  29.224   0.287  49.706
90097W        W82021  17.751  33.236  53.341
90098W        W82022  15.736  48.191  52.415
90099W        W82023  37.236  36.202  51.514
90100W        W82024  46.694  23.742  51.532
90101W        W82025   2.769  20.264  51.491
90102W        W82026   0.778   0.756  53.810
90103W        W82027  27.251   0.264  52.442
90104W        W82028   7.750  35.206  49.695
90105W        W82029   9.264  36.215  50.590
90106W        W82030  38.234  45.705  53.346
90107W        W82031   4.267  12.748  49.701
90108W        W82032  12.733   5.788  51.500
90109W        W82033  23.241   8.769  51.500
90110W        W82034   7.264  38.194  51.045
90111W        W82035  18.246  28.226  53.324
90112W        W82036  17.252  20.764  52.416
90113W        W82037  17.226  41.710  51.528
90114W        W82038  11.749   8.777  52.895
90115W        W82039  23.239  26.207  51.988
90116W        W82040  47.701  32.710  52.418
90117W        W82041   3.267  16.767  50.601
90118W        W82042  46.213  10.264  51.992
90119W        W82043   6.785  35.241  53.801
90120W        W82044  18.269  32.213  50.613
90121W        W82045  13.240  11.754  52.870
90122W        W82046  44.708   5.758  51.983
90123W        W82047  35.237   7.242  52.407
90124W        W82048  40.227  12.251  53.775
90125W        W82049  12.777  23.744  50.585
90126W        W82050   6.784  32.742  50.592
90127W        W82051  46.197  31.735  50.156
90128W        W82052  37.211  41.216  51.058
90129W        W82053  30.710  48.206  51.073
90130W        W82054  46.178  35.211  51.987
90131W        W82055   0.780   1.786  53.338
90132W        W82056  36.711  26.733  49.695
90133W        W82057  23.759  48.185  51.983
90134W        W82058   4.760   1.295  49.675
90135W        W82059  40.717  30.731  51.499
90136W        W82060  20.247  30.213  52.869
90137W        W82061  31.710  46.704  51.058
90138W        W82062  34.219  18.727  51.069
90139W        W82063  16.258  29.729  49.704
90140W        W82064  13.762  18.264  51.961
90141W        W82065   8.282  29.252  52.884
90142W        W82066  45.202  39.696  51.516
90143W        W82067  43.726  13.760  50.139
90144W        W82068  39.200   3.786  53.341
90145W        W82069  22.246  27.722  51.495
90146W        W82070   4.747  14.749  50.131
90147W        W82071  13.757  36.730  50.125
90148W        W82072  45.687  20.736  51.980
90149W        W82073  40.725  17.765  52.897
90150W        W82074  29.725  31.241  49.707
90151W        W82075  32.739  10.247  51.034
90152W        W82076  24.745  18.766  52.423
90153W        W82077  18.731   9.277  53.814
90154W        W82078  16.257   0.788  51.964
90155W        W82079   5.279   7.767  49.673
90156W        W82080   5.284  32.714  52.418
90157W        W82081  21.253  30.214  50.149
90158W        W82082  33.224  31.701  49.684
90159W        W82083  32.231  24.211  51.067
90160W        W82084  10.265   6.281  53.350
90161W        W82085  23.752  37.192  52.427
90162W        W82086  11.244  26.237  49.706
90163W        W82087  38.226  21.256  51.502
90164W        W82088  43.196  27.243  53.326
90165W        W82089  24.740  36.192  53.784
90166W        W82090  40.208  40.233  53.808
90167W        W82091  21.232  34.724  52.443
90168W        W82092  30.224  10.237  50.613
90169W        W82093  28.738  38.691  53.791
90170W        W82094  22.232   4.792  53.796
90171W        W82095  17.767   0.781  50.141
90172W        W82096  36.210  24.739  53.782
90173W        W82097  19.237  19.765  51.966
90174W        W82098  19.741   0.270  50.617
90175W        W82099  22.735  30.221  53.327
90176W        W82100  44.699  15.257  50.593
90177W        W82101   6.766  41.186  50.128
90178W        W82102  28.726   1.782  51.056
90179W        W82103  15.253   3.245  49.672
90180W        W82104  36.228  39.226  50.156
90181W        W82105  17.229  26.721  51.077
90182W        W82106  17.237  17.726  51.948
90183W        W82107  16.741  14.744  53.356
90184W        W82108  18.266  23.261  51.060
90185W        W82109  47.186  40.189  51.957
90186W        W82110  23.719  37.226  53.320
90187W        W82111  20.245  16.727  51.527
90188W        W82112  38.713  12.252  53.334
90189W        W82113  12.770  47.207  51.976
90190W        W82114  24.258  17.750  52.894
90191W        W82115  31.240  35.704  52.436
90192W        W82116  25.723  19.266  49.702
90193W        W82117  35.712  47.184  51.514
90194W        W82118  17.740   4.788  50.123
90195W        W82119   6.279   4.788  51.968
90196W        W82120  42.227   5.780  52.435
90197W        W82121  12.772   3.263  52.445
90198W        W82122   3.790  37.726  50.143
90199W        W82123   9.764  16.262  51.976
90200W        W82124  37.699  45.213  51.048
90201W        W82125  33.230  16.750  53.328
90202W        W82126   1.780  13.253  53.812
90203W        W82127  40.197  28.222  50.616
90204W        W82128  36.216  34.695  51.985
90205W        W82129  36.201   8.784  52.429
90206W        W82130  28.703  21.748  51.966
90207W        W82131  14.227  25.211  50.620
90208W        W82132  25.222  40.225  53.360
90209W        W82133  41.691  16.229  51.523
90210W        W82134  42.189  35.715  52.415
90211W        W82135  15.273  23.712  49.675
90212W        W82136  21.727  16.257  49.680
90213W        W82137  45.679   8.239  52.863
90214W        W82138   9.277  28.712  52.415
90215W        W82139  35.703  41.708  53.316
90216W        W82140  48.203  37.226  50.588
90217W        W82141  37.227  31.716  51.530
90218W        W82142  30.228  13.265  51.953
90219W        W82143  30.246  42.188  52.435
90220W        W82144  37.727  40.216  52.414
90221W        W82145  34.194  17.260  53.344
90222W        W82146  12.741  35.223  53.336
90223W        W82147  47.204  13.753  53.805
90224W        W82148  35.229  16.241  51.529
90225W        W82149  16.741  44.688  50.602
90226W        W82150  17.748  25.716  51.064
90227W        W82151  28.718  35.715  49.688
90228W        W82152  21.261  24.757  51.527
90229W        W82153  36.226   5.757  52.884
90230W        W82154  38.187   1.294  49.675
90231W        W82155  19.265  17.249  52.448
90232W        W82156  21.224  21.740  49.703
90233W        W82157  21.756   4.762  52.410
90234W        W82158  15.766  13.732  52.440
90235W        W82159  28.214  34.232  52.888
90236W        W82160   8.764  30.718  53.785
90237W        W82161  12.237  32.718  53.785
90238W        W82162  20.730  39.715  50.165
90239W        W82163  35.711  44.722  51.976
90240W        W82164  35.728  38.192  51.065
90241W        W82165  33.702  29.744  51.987
90242W        W82166  26.214   2.765  53.808
90243W        W82167  41.230  23.241  52.430
90244W        W82168  29.226  45.701  51.495
90245W        W82169  31.214  12.778  51.075
90246W        W82170  48.218  18.261  51.508
90247W        W82171   3.260  22.253  51.037
90248W        W82172  23.240  35.213  52.420
90249W        W82173  48.176  34.214  53.776
90250W        W82174  40.712  40.190  51.519
90251W        W82175  43.186  33.744  50.607
90252W        W82176  14.726  48.173  53.359
90253W        W82177  33.716   3.283  51.496
90254W        W82178  34.242  46.210  51.071
90255W        W82179  47.707  20.250  50.607
90256W        W82180  24.230  29.702  53.772
90257W        W82181  30.210  43.679  51.066
90258W        W82182  24.232  29.232  49.671
90259W        W82183  18.753   5.769  49.700
90260W        W82184  38.226  43.679  52.417
90261W        W82185   3.256  18.721  52.864
90262W        W82186  15.744  16.246  52.875
90263W        W82187  38.695  47.181  52.898
90264W        W82188   2.781  39.701  51.978
90265W        W82189  45.216  14.736  52.418
90266W        W82190  47.194  22.248  50.584
90267W        W82191  37.215  46.206  50.598
90268W        W82192  23.236   1.759  49.687
90269W        W82193  34.706   0.264  51.989
90270W        W82194  29.722  40.706  53.790
90271W        W82195  20.237  42.195  52.875
90272W        W82196   8.238  36.208  50.597
90273W        W82197  31.698  10.239  53.803
90274W        W82198  36.213  43.208  51.051
90275W        W82199  29.735  12.240  50.619
90276W        W82200   5.251  47.672  53.776
90277W        W82201   2.276  42.217  52.859
90278W        W82202  16.258  28.715  50.619
90279W        W82203  37.720  15.769  52.425
90280W        W82204  24.732  30.705  53.812
90281W        W82205   4.766  30.706  51.970
90282W        W82206  28.728   7.785  53.339
90283W        W82207   3.755  24.258  53.317
90284W        W82208  31.699  40.690  52.447
90285W        W82209  12.274  44.724  50.613
90286W        W82210  46.697  30.745  51.988
90287W        W82211  17.762   7.248  51.967
90288W        W82212  13.745  37.715  52.438
90289W        W82213  29.213  26.245  49.665
90290W        W82214  10.268  24.756  51.516
90291W        W82215  31.708  25.241  52.871
90292W        W82216  25.746  20.749  49.679
90293W        W82217  39.211  32.726  53.811
90294W        W82218  39.225   1.291  51.972
90295W        W82219   3.289  38.207  49.675
90296W        W82220  36.735  48.201  51.068
90297W        W82221  29.232  23.251  51.519
90298W        W82222  31.230  34.236  50.610
90299W        W82223   6.752  39.199  51.073
90300W        W82224  20.723  21.229  51.054
90301W        W82225   0.268  21.754  50.134
90302W        W82226  44.718  11.249  49.686
90303W        W82227  33.227  20.242  53.791
90304W        W82228  27.216  30.220  51.495
90305W        W82229   4.265  37.701  53.360
90306W        W82230   6.741  35.727  52.432
90307W        W82231  32.744  30.234  50.607
90308W        W82232  15.761  21.735  52.447
90309W        W82233  20.264   2.753  50.141
90310W        W82234   6.252   2.254  51.493
90311W        W82235   1.294  28.751  52.424
90312W        W82236  36.194  28.715  49.674
90313W        W82237  11.750  30.716  50.593
90314W        W82238  10.738  28.713  50.145
90315W        W82239  13.260  47.179  50.598
90316W        W82240  20.719   5.262  51.502
90317W        W82241   9.763  46.673  51.972
90318W        W82242  22.254  11.761  51.990
90319W        W82243  18.237   8.773  49.710
90320W        W82244   7.773   1.767  52.448
90321W        W82245  22.254  39.720  53.809
90322W        W82246  33.702  27.732  51.069
90323W        W82247  46.699  10.748  53.811
90324W        W82248  26.756  38.713  50.621
90325W        W82249  48.197  45.713  51.956
90326W        W82250  32.711  10.242  51.954
90327W        W82251   9.253  40.211  51.962
90328W        W82252  44.688   3.765  52.439
90329W        W82253  43.725   3.749  51.074
90330W        W82254  13.769  39.214  52.419
90331W        W82255  34.221  27.234  53.783
90332W        W82256  22.757  10.280  53.785
90333W        W82257  20.244  23.250  50.580
90334W        W82258   8.272  13.274  51.493
90335W        W82259   5.780  44.708  49.689
90336W        W82260  26.733  36.230  53.806
90337W        W82261  39.686   3.249  50.595
90338W        W82262  36.209  25.220  50.132
90339W        W82263  21.736  42.223  50.615
90340W        W82264   5.277  31.211  49.702
90341W        W82265  24.220  32.239  52.418
90342W        W82266  40.222  17.731  52.864
90343W        W82267  43.219  38.197  50.617
90344W        W82268   2.278  31.240  52.895
90345W        W82269  45.676  43.702  50.142
90346W        W82270  27.239  29.738  50.164
90347W        W82271   3.747  25.252  51.529
90348W        W82272   2.280  46.694  50.599
90349W        W82273   1.748  35.221  52.872
90350W        W82274   4.281  42.685  53.817
90351W        W82275  35.231  27.752  51.527
90352W        W82276  47.212  29.739  51.947
90353W        W82277  28.250  19.239  53.344
90354W        W82278  17.750  10.753  50.618
90355W        W82279  20.257   7.244  51.534
90356W        W82280  27.207  14.250  53.357
90357W        W82281  46.674  31.709  53.782
90358W        W82282  31.240  34.714  52.445
90359W        W82283  17.729   3.253  52.416
90360W        W82284  24.749  22.219  53.811
90361W        W82285  43.206  29.236  53.358
90362W        W82286  13.749  43.692  53.810
90363W        W82287   8.239  25.726  50.591
90364W        W82288   4.246  42.708  51.053
90365W        W82289  20.221  32.700  50.614
90366W        W82290  48.178  13.770  50.136
90367W        W82291  48.180  48.203  49.703
90368W        W82292  29.209  13.260  53.776
90369W        W82293   9.244  40.198  51.054
90370W        W82294  46.210  11.250  50.598
90371W        W82295   7.287  12.766  51.989
90372W        W82296   5.258  41.186  51.518
90373W        W82297   5.768  16.755  51.063
90374W        W82298  13.241  21.748  51.957
90375W        W82299  14.759   7.279  51.520
90376W        W82300  19.262  21.734  50.136
90377W        W82301   0.292   8.285  50.136
90378W        W82302  19.254   3.278  51.522
90379W        W82303  46.705  37.220  49.709
90380W        W82304  15.230   7.282  53.813
90381W        W82305  45.190  19.257  49.679
90382W        W82306   8.755  46.682  50.166
90383W        W82307   8.740  25.728  52.870
90384W        W82308  44.197   4.257  53.318
90385W        W82309   1.770  18.270  52.409
90386W        W82310   1.252   4.256  51.951
90387W        W82311  11.257   0.751  51.059
90388W        W82312  26.252  25.716  53.807
90389W        W82313   5.783  19.739  50.139
90390W        W82314  24.237  38.707  51.991
90391W        W82315  34.717  15.750  49.681
90392W        W82316  26.214  29.721  52.865
90393W        W82317   2.287  18.264  49.689
90394W        W82318  37.236  39.234  53.810
90395W        W82319  46.717  28.232  51.957
90396W        W82320  34.738  21.733  53.321
90397W        W82321  34.699  40.221  50.612
90398W        W82322  29.716  22.260  52.877
90399W        W82323  36.714  47.177  51.506
90400W        W82324  35.735  22.233  50.133
90401W        W82325  38.715  46.205  49.674
90402W        W82326  39.728   3.751  49.687
90403W        W82327  42.206  37.718  51.498
90404W        W82328  24.746   0.763  51.949
90405W        W82329  12.743  33.235  50.130
90406W        W82330  12.776   0.283  52.898
90407W        W82331  33.724  10.740  52.902
90408W        W82332  32.718  35.710  52.903
90409W        W82333  25.757  18.728  53.352
90410W        W82334  33.223  33.718  53.777
90411W        W82335  26.218  27.239  50.134
90412W        W82336  35.718   1.752  51.987
90413W        W82337   4.744  26.226  53.793
90414W        W82338  22.735  44.190  52.441
90415W        W82339  21.718  45.220  53.347
90416W        W82340  42.695  38.194  51.059
90417W        W82341   1.794  23.242  51.520
90418W        W82342   2.775  38.709  49.706
90419W        W82343   2.260   0.272  53.802
90420W        W82344  12.272  11.266  50.618
90421W        W82345  38.201   9.237  51.068
90422W        W82346  15.725   1.757  53.798
90423W        W82347  37.208  32.231  53.792
90424W        W82348  42.722  35.237  51.949
90425W        W82349  16.263  45.724  51.950
90426W        W82350   9.282  22.259  50.596
90427W        W82351  10.242  20.245  53.320
90428W        W82352  21.762   2.747  50.126
90429W        W82353  36.736   2.267  51.528
90430W        W82354  37.690  12.237  50.149
90431W        W82355  26.217   7.275  51.974
90432W        W82356   3.762  48.172  49.681
90433W        W82357  27.746  18.254  51.521
90434W        W82358  47.706  31.243  50.158
90435W        W82359  42.724  20.242  53.355
90436W        W82360  45.714  43.202  51.955
90437W        W82361  35.715   2.284  50.622
90438W        W82362   4.768  28.244  53.331
90439W        W82363   1.261   7.774  52.416
90440W        W82364   5.751   7.776  53.350
90441W        W82365  31.736  26.732  51.966
90442W        W82366  24.243   0.767  50.124
90443W        W82367  31.725  39.700  52.893
90444W        W82368  47.695  40.201  53.778
90445W        W82369  44.725   9.757  53.317
90446W        W82370  45.722  39.188  51.950
90447W        W82371  30.728  28.715  51.047
90448W        W82372   9.776  36.191  51.496
90449W        W82373  44.194  28.735  51.960
90450W        W82374  27.720   3.294  51.061
90451W        W82375  47.682  42.225  52.422
90452W        W82376  31.226  11.757  52.424
90453W        W82377   3.281  39.212  50.581
90454W        W82378  45.181  10.246  49.676
90455W        W82379  43.219   5.262  51.502
90456W        W82380  13.276  24.709  50.134
90457W        W82381  20.219  24.242  51.527
90458W        W82382  33.234  17.269  53.814
90459W        W82383  48.203  41.706  50.578
90460W        W82384   3.790  32.717  52.425
90461W        W82385  33.234  19.256  50.593
90462W        W82386  43.217  24.720  51.509
90463W        W82387  43.709  25.230  50.597
90464W        W82388  40.184  47.706  51.062
90465W        W82389  11.280   3.293  53.322
90466W        W82390  10.281  21.248  50.618
90467W        W82391  28.737  42.186  51.507
90468W        W82392  41.692  28.723  50.142
90469W        W82393  26.722   5.758  53.351
90470W        W82394  35.203  19.746  49.668
90471W        W82395   4.251   4.288  50.140
90472W        W82396  42.206  46.219  49.689
90473W        W82397  36.698   8.770  49.690
90474W        W82398  36.232  45.696  51.071
90475W        W82399   3.267  43.220  53.325
90476W        W82400  34.200  25.720  51.069
90477W        W82401  30.734  44.709  53.790
90478W        W82402  38.215   5.761  51.949
90479W        W82403  20.225   4.782  52.420
90480W        W82404  22.232  42.208  52.896
90481W        W82405  16.247  26.218  49.691
90482W        W82406  33.697   5.273  50.622
90483W        W82407  42.680  35.719  53.788
90484W        W82408  15.766  32.706  52.872
90485W        W82409  15.259  47.671  51.533
90486W        W82410  13.261  30.733  52.865
90487W        W82411  38.230  17.270  53.806
90488W        W82412   5.785  21.234  50.592
90489W        W82413   8.746  47.210  53.803
90490W        W82414  22.724   1.775  53.804
90491W        W82415  32.246  38.199  52.412
90492W        W82416  17.744  47.703  52.866
90493W        W82417  37.192  35.217  52.448
90494W        W82418  26.714   6.266  53.351
90495W        W82419  43.693  16.231  51.519
90496W        W82420  33.212  22.747  53.788
90497W        W82421   6.759  24.723  50.127
90498W        W82422  37.695  33.226  49.683
90499W        W82423  24.734  15.256  51.072
90500W        W82424  23.220  17.258  51.522
90501W        W82425  39.698  30.723  52.900
90502W        W82426  10.275  38.728  52.421
90503W        W82427  37.207  14.228  50.128
90504W        W82428  44.182   4.764  51.498
90505W        W82429  26.246  22.220  50.585
90506W        W82430  29.233  21.243  52.411
90507W        W82431  32.742  41.231  51.981
90508W        W82432  12.732   2.757  53.348
90509W        W82433   0.298  23.256  50.585
90510W        W82434   3.789  46.179  49.672
90511W        W82435   6.766   4.289  50.610
90512W        W82436  14.733   5.741  52.432
90513W        W82437  13.265  34.227  51.523
90514W        W82438  13.753   7.742  51.947
90515W        W82439  19.260  43.225  51.955
90516W        W82440  35.714  22.240  51.072
90517W        W82441   9.254  30.203  52.886
90518W        W82442  22.753  32.246  51.491
90519W        W82443  19.257  38.215  53.790
90520W        W82444  39.204  13.762  51.949
90521W        W82445  29.748  13.751  51.065
90522W        W82446  28.710  12.254  52.405
90523W        W82447  23.714   2.284  52.420
90524W        W82448   0.295  17.734  51.948
90525W        W82449  14.753  42.226  50.156
90526W        W82450  37.709  23.235  50.132
90527W        W82451   0.273  44.195  53.805
90528W        W82452  20.722  19.739  53.346
90529W        W82453  39.215  42.201  51.517
90530W        W82454  34.238  44.185  50.614
90531W        W82455  35.237   8.255  53.774
90532W        W82456  33.227  20.733  50.130
90533W        W82457  26.228  36.192  50.607
90534W        W82458   7.759  25.255  51.956
90535W        W82459  12.729  21.729  51.967
90536W        W82460  32.225  37.206  51.049
90537W        W82461   2.780  18.730  50.164
90538W        W82462  15.759  31.705  53.354
90539W        W82463  30.706  42.721  53.346
90540W        W82464  15.248  12.759  53.336
90541W        W82465  44.218  36.724  51.496
90542W        W82466  34.216  40.225  53.811
90543W        W82467  44.225   3.252  53.319
90544W        W82468  45.687  35.739  53.792
90545W        W82469   1.764  19.240  51.491
90546W        W82470  46.191   5.741  51.062
90547W        W82471   4.746  45.714  53.798
90548W        W82472  29.702   6.766  50.161
90549W        W82473  12.248  42.189  50.587
90550W        W82474  22.225  47.188  50.586
90551W        W82475   1.763  10.735  53.816
90552W        W82476   9.766  23.252  53.803
90553W        W82477   5.273  16.252  50.577
90554W        W82478   7.261  12.736  52.862
90555W        W82479  25.714  29.722  53.811
90556W        W82480  33.737  41.728  51.042
90557W        W82481  16.767  31.733  53.324
90558W        W82482  25.733  16.257  53.782
90559W        W82483  14.232  37.192  52.864
90560W        W82484   1.263  40.709  51.529
90561W        W82485  47.672  27.707  51.070
90562W        W82486  23.262  15.745  51.054
90563W        W82487  42.202   8.246  49.683
90564W        W82488  25.252  25.709  51.960
90565W        W82489  25.233  44.690  53.337
90566W        W82490   7.769  15.755  52.894
90567W        W82491  38.686  32.697  51.500
90568W        W82492   5.768  45.187  52.444
90569W        W82493  40.699  38.695  52.902
90570W        W82494  35.700   9.735  51.967
90571W        W82495   3.747  41.704  51.069
90572W        W82496  24.738   7.269  52.900
90573W        W82497  32.243  24.718  49.695
90574W        W82498  16.256  15.260  49.709
90575W        W82499  31.703  35.192  52.405
90576W        W82500   0.768  36.718  53.338
90577W        W82501  30.224  15.256  52.433
90578W        W82502  33.219  39.724  52.861
90579W        W82503   2.759  30.742  53.317
90580W        W82504  27.740  44.204  51.522
90581W        W82505  16.757   9.747  53.790
90582W        W82506  30.217  43.199  53.797
90583W        W82507   1.759  34.221  53.802
90584W        W82508  17.724  16.758  50.131
90585W        W82509   0.278   6.288  49.687
90586W        W82510  11.281  33.728  49.693
90587W        W82511  14.274  16.747  51.068
90588W        W82512  20.218   4.783  53.323
90589W        W82513  31.741  24.712  53.325
90590W        W82514   0.283   7.746  51.969
90591W        W82515  28.248   9.280  51.520
90592W        W82516   4.753  15.266  52.868
90593W        W82517   7.241  26.244  51.512
90594W        W82518  27.253  17.722  53.355
90595W        W82519  45.175  22.219  52.437
90596W        W82520  21.216  38.210  53.348
90597W        W82521  41.692  36.221  51.957
90598W        W82522   0.287  27.747  53.352
90599W        W82523  36.699  29.211  52.864
90600W        W82524  30.729  31.734  51.041
90601W        W82525   1.252  37.723  51.055
90602W        W82526  40.691  33.221  51.969
90603W        W82527  15.730   4.766  51.055
90604W        W82528  28.751   8.245  53.357
90605W        W82529  26.253  35.193  53.341
90606W        W82530  25.724  41.724  50.152
90607W        W82531  27.211  26.230  51.048
90608W        W82532  25.211  20.230  52.404
90609W        W82533  27.231  38.190  52.889
90610W        W82534  43.727  28.707  51.046
90611W        W82535   0.272  22.739  49.678
90612W        W82536   2.774  44.682  53.341
90613W        W82537  32.210  28.737  52.874
90614W        W82538  24.222  10.773  52.405
90615W        W82539  46.721  39.213  51.494
90616W        W82540  14.233   4.759  53.816
90617W        W82541   8.752  12.230  50.608
90618W        W82542  25.733  47.189  52.431
90619W        W82543  14.730  41.705  53.789
90620W        W82544  32.221   0.252  52.426
90621W        W82545   2.274   4.266  51.983
90622W        W82546  35.739  10.237  53.330
90623W        W82547  45.218  39.699  53.778
90624W        W82548  40.728  27.725  51.064
90625W        W82549  20.720  23.256  51.523
90626W        W82550   1.749   0.759  53.346
90627W        W82551  12.264   9.759  51.494
90628W        W82552  44.704  22.240  53.354
90629W        W82553   3.249  15.746  50.127
90630W        W82554  44.208  22.727  50.585
90631W        W82555  40.224  45.681  51.494
90632W        W82556  41.207  47.172  51.499
90633W        W82557  20.219  31.741  50.161
90634W        W82558  29.722  33.206  53.335
90635W        W82559  12.261  17.767  51.520
90636W        W82560  32.246  48.177  53.346
90637W        W82561   5.761  18.238  53.330
90638W        W82562  40.219   1.271  51.977
90639W        W82563  33.234  15.737  52.431
90640W        W82564  13.748  36.720  49.667
90641W        W82565  38.718  26.730  52.892
90642W        W82566   2.770  14.266  52.860
90643W        W82567  36.202  12.745  49.689
90644W        W82568  45.687  18.769  52.892
90645W        W82569   6.761   9.754  53.323
90646W        W82570   4.275  27.249  51.519
90647W        W82571   6.243  18.254  52.446
90648W        W82572  33.241   8.783  49.680
90649W        W82573  38.206   4.775  53.814
90650W        W82574  46.212  39.717  49.668
90651W        W82575   0.754  21.241  49.681
90652W        W82576   4.791  37.213  53.326
90653W        W82577  24.258  22.760  52.898
90654W        W82578   3.775  17.228  52.431
90655W        W82579  39.703  20.720  52.867
90656W        W82580  41.710  34.227  51.041
90657W        W82581  19.252  37.235  49.690
90658W        W82582  33.200  28.231  53.799
90659W        W82583  21.732  18.254  53.793
90660W        W82584  45.723  19.764  52.872
90661W        W82585   0.776  16.228  51.524
90662W        W82586  23.733  39.228  50.603
90663W        W82587  34.705  39.213  52.427
90664W        W82588   5.781  46.184  53.328
90665W        W82589  16.760  11.264  49.681
90666W        W82590  10.243  21.257  53.358
90667W        W82591   6.744   6.274  51.957
90668W        W82592   2.254   3.277  50.581
90669W        W82593  13.272   4.754  53.361
90670W        W82594  21.719  37.727  50.619
90671W        W82595  32.712  16.250  53.325
90672W        W82596  29.219  37.730  51.528
90673W        W82597  41.209  20.252  52.874
90674W        W82598  13.757  30.219  51.495
90675W        W82599   6.283   5.278  52.415
90676W        W82600  27.218  28.251  51.968
90677W        W82601  42.189   9.283  52.892
90678W        W82602   0.791   2.764  51.988
90679W        W82603  15.736  40.221  50.161
90680W        W82604  17.743  21.753  53.814
90681W        W82605  16.259  19.247  51.516
90682W        W82606  26.242  26.750  50.590
90683W        W82607  47.198  28.240  49.687
90684W        W82608  37.224  30.233  52.886
90685W        W82609  38.717  12.260  49.699
90686W        W82610  35.705  26.239  51.502
90687W        W82611  34.220   5.770  53.803
90688W        W82612   8.273  23.257  52.875
90689W        W82613  34.738  20.233  52.893
90690W        W82614  19.231  12.270  52.423
90691W        W82615  10.262  22.732  51.497
90692W        W82616  34.742  26.741  49.667
90693W        W82617  23.237  47.189  50.139
90694W        W82618  21.215  24.740  50.600
90695W        W82619  17.254  31.219  50.604
90696W        W82620  18.258  20.251  51.983
90697W        W82621  39.220  31.735  50.609
90698W        W82622  23.239   9.750  52.431
90699W        W82623  25.717  34.227  51.062
90700W        W82624  24.237  15.240  53.808
90701W        W82625  43.199  39.709  50.600
90702W        W82626  41.209  12.275  50.160
90703W        W82627  32.729   7.764  51.954
90704W        W82628  30.225  10.774  51.530
90705W        W82629  44.704   5.766  52.406
90706W        W82630  24.715  27.222  50.578
90707W        W82631  12.737  34.716  53.332
90708W        W82632  26.709  20.748  52.866
90709W        W82633   1.285  26.228  50.158
90710W        W82634  17.759   7.286  51.068
90711W        W82635  35.214  41.714  50.597
90712W        W82636  35.233  35.712  53.816
90713W        W82637  26.234  19.724  49.679
90714W        W82638  11.258  44.714  53.330
90715W        W82639  39.688  44.717  53.785
90716W        W82640   9.737  33.211  52.869
90717W        W82641  33.196  38.703  51.523
90718W        W82642  47.718  35.733  50.152
90719W        W82643  28.720  27.713  52.872
90720W        W82644  44.179  47.713  50.595
90721W        W82645  12.230   7.254  49.679
90722W        W82646   3.253  29.736  50.582
90723W        W82647   8.742  11.774  49.681
90724W        W82648   6.264  14.733  49.690
90725W        W82649   7.245  43.189  51.497
90726W        W82650  42.689  42.187  49.694
90727W        W82651  21.718  34.723  51.503
90728W        W82652  18.246  21.727  52.898
90729W        W82653  19.728  15.227  53.342
90730W        W82654  46.694   9.246  50.157
90731W        W82655   3.267  11.732  50.603
90732W        W82656  34.700  38.229  50.132
90733W        W82657   9.280  36.726  51.053
90734W        W82658  39.226  36.736  50.605
90735W        W82659  30.234  42.706  52.448
90736W        W82660  33.241   5.776  50.582
90737W        W82661  40.219  14.750  51.510
90738W        W82662  32.718   5.274  51.967
90739W        W82663  27.252  23.743  50.165
90740W        W82664  26.734  13.273  49.667
90741W        W82665  46.688  13.271  52.448
90742W        W82666  13.739  31.223  53.353
90743W        W82667  23.233  38.729  49.673
90744W        W82668  45.201  46.190  50.583
90745W        W82669  23.730   4.273  51.040
90746W        W82670  12.740  44.691  51.956
90747W        W82671  38.222  41.713  52.408
90748W        W82672   6.263  15.740  51.952
90749W        W82673  48.215  24.744  50.144
90750W        W82674  34.713  14.747  49.694
90751W        W82675  25.250  31.214  51.970
90752W        W82676  39.703   3.282  51.947
90753W        W82677   2.767  14.752  51.535
90754W        W82678  27.726  18.257  50.621
90755W        W82679  28.210  40.719  53.335
90756W        W82680  48.207   1.256  50.608
90757W        W82681  47.674  14.230  50.603
90758W        W82682  22.236  29.205  52.895
90759W        W82683   5.275   6.777  53.801
90760W        W82684  44.722  32.214  51.068
90761W        W82685  30.234  38.708  52.439
90762W        W82686  26.738  26.724  52.864
90763W        W82687  38.216  41.718  53.780
90764W        W82688  21.221  35.721  52.447
90765W        W82689  32.721   3.252  53.777
90766W        W82690   4.776  44.691  49.665
90767W        W82691  24.747   0.253  51.953
90768W        W82692  11.745   5.781  53.773
90769W        W82693  14.726  36.696  51.968
90770W        W82694  39.205   3.790  50.141
90771W        W82695  30.699  40.203  51.045
90772W        W82696  24.237  26.745  52.443
90773W        W82697  11.245   4.761  52.431
90774W        W82698  34.205   2.774  52.874
90775W        W82699   5.277   0.267  49.698
90776W        W82700  25.213  47.711  49.707
90777W        W82701  19.733  25.227  50.149
90778W        W82702   8.238  22.245  51.954
90779W        W82703   2.276  18.269  50.157
90780W        W82704  16.244  21.231  51.964
90781W        W82705  16.266  32.246  49.709
90782W        W82706   9.757   0.251  51.958
90783W        W82707  33.241  11.279  51.052
90784W        W82708  40.732  43.192  50.617
90785W        W82709  31.231   5.273  51.040
90786W        W82710  36.216  15.731  53.336
90787W        W82711  29.738  35.718  52.889
90788W        W82712  22.762   6.760  51.530
90789W        W82713  45.694  27.732  51.964
90790W        W82714  24.754  33.727  50.579
90791W        W82715   7.258  27.215  50.140
90792W        W82716  45.699  37.701  51.521
90793W        W82717  16.772  24.740  51.961
90794W        W82718  40.717  29.208  51.985
90795W        W82719  34.194  35.203  53.350
90796W        W82720   0.763  30.224  51.502
90797W        W82721   9.246  10.268  53.348
90798W        W82722  38.219   2.291  50.126
90799W        W82723   9.252  38.232  49.668
90800W        W82724   5.766  22.240  53.345
90801W        W82725   2.256  42.692  52.428
90802W        W82726  45.194  20.717  51.963
90803W        W82727  42.190  29.712  52.867
90804W        W82728  23.711  38.702  53.328
90805W        W82729   5.770  38.695  50.122
90806W        W82730   8.270  45.182  50.136
90807W        W82731  39.210  37.213  50.620
90808W        W82732  20.262  40.699  50.130
90809W        W82733   1.269  19.760  50.129
90810W        W82734  22.714   0.788  52.445
90811W        W82735   0.787  29.718  51.497
90812W        W82736  21.742  38.208  51.957
90813W        W82737  28.205  47.692  51.972
90814W        W82738  29.213  19.219  52.861
90815W        W82739  48.211  10.764  51.061
90816W        W82740  15.252  21.244  49.698
90817W        W82741  26.228  22.233  52.429
90818W        W82742  44.222  11.774  51.950
90819W        W82743   5.267   4.259  51.048
90820W        W82744  14.737  18.751  50.144
90821W        W82745   1.765  44.196  52.868
90822W        W82746  37.190  22.233  52.425
90823W        W82747  24.221  10.238  53.342
90824W        W82748  12.757  21.223  52.434
90825W        W82749  22.751  16.265  52.871
90826W        W82750  43.723  13.773  51.509
90827W        W82751  43.223  42.195  51.983
90828W        W82752  47.192  44.694  51.045
90829W        W82753  40.708  28.717  53.324
90830W        W82754  35.214  32.727  52.414
90831W        W82755  28.709   1.283  51.534
90832W        W82756  26.734  27.741  51.045
90833W        W82757  27.217  33.724  50.146
90834W        W82758   2.774   6.278  50.605
90835W        W82759  41.193  37.211  51.065
90836W        W82760  30.236  32.208  49.706
90837W        W82761  42.716  42.697  51.988
90838W        W82762  26.726  35.726  53.348
90839W        W82763  44.179  12.754  51.962
90840W        W82764  43.715  45.719  53.788
90841W        W82765   8.267  30.234  51.056
90842W        W82766  38.688  34.239  52.870
90843W        W82767  36.736  42.202  51.496
90844W        W82768  22.746  42.211  50.583
90845W        W82769   3.256  41.722  52.439
90846W        W82770   4.268  39.222  51.952
90847W        W82771  14.274  10.735  51.504
90848W        W82772  15.746  10.245  51.500
90849W        W82773   6.747  30.745  51.948
90850W        W82774   1.790  45.202  50.599
90851W        W82775   4.267  24.254  51.969
90852W        W82776   2.756  26.236  49.689
90853W        W82777  48.213  39.212  51.956
90854W        W82778  37.735   4.292  52.444
90855W        W82779  27.735  28.235  52.417
90856W        W82780  37.689  32.239  51.962
90857W        W82781  16.259  29.226  51.533
90858W        W82782  17.745  46.699  51.954
90859W        W82783  10.264  13.750  51.042
90860W        W82784  32.704  10.750  50.596
90861W        W82785  35.724  32.726  49.689
90862W        W82786  35.208  10.267  52.899
90863W        W82787   8.252  48.177  53.793
90864W        W82788  23.221  22.740  49.688
90865W        W82789  12.239  10.280  50.127
90866W        W82790  47.186  19.229  52.444
90867W        W82791   9.271  11.238  50.133
90868W        W82792  41.692  34.211  51.500
90869W        W82793  42.191  43.207  53.349
90870W        W82794  22.215  21.241  50.140
90871W        W82795   0.274  15.233  49.707
90872W        W82796  48.198   0.758  51.040
90873W        W82797  30.220  22.248  53.318
90874W        W82798  24.754   3.748  53.779
90875W        W82799   8.250  12.735  52.866
90876W        W82800  42.198  26.231  50.622
90877W        W82801  19.257  45.691  53.326
90878W        W82802  16.754  31.241  51.035
90879W        W82803  33.741  41.189  50.596
90880W        W82804  10.264   4.780  50.602
90881W        W82805  27.707  13.773  50.604
90882W        W82806  34.726  14.749  53.345
90883W        W82807  12.757  20.729  52.900
90884W        W82808  28.736  38.193  52.416
90885W        W82809   2.278  28.706  49.687
90886W        W82810  45.204  40.197  50.588
90887W        W82811  42.185  15.231  52.880
90888W        W82812  10.746   8.264  51.063
90889W        W82813  19.722  26.745  53.328
90890W        W82814  37.698   9.244  53.815
90891W        W82815  36.717  11.780  50.619
90892W        W82816  27.707  45.711  49.683
90893W        W82817  17.251   6.283  50.618
90894W        W82818   4.784  34.739  53.798
90895W        W82819  24.724  11.277  51.978
90896W        W82820   6.272   9.770  50.156
90897W        W82821  19.236  12.270  53.357
90898W        W82822   2.752  12.752  53.328
90899W        W82823  44.226   6.758  49.709
90900W        W82824  14.761  44.699  50.607
90901W        W82825  17.726  33.230  52.417
90902W        W82826   3.746   9.258  51.039
90903W        W82827  14.270  29.228  51.957
90904W        W82828  12.240  47.195  50.592
90905W        W82829  35.738   9.251  50.616
90906W        W82830  36.211  32.219  51.497
90907W        W82831  23.724  44.712  50.588
90908W        W82832  32.711  12.244  51.953
90909W        W82833   4.282  33.236  50.591
90910W        W82834  12.253  42.191  52.442
90911W        W82835  39.206  39.219  53.349
90912W        W82836   1.264  26.711  51.971
90913W        W82837  40.189  18.726  50.581
90914W        W82838  30.706  11.255  50.589
90915W        W82839  39.225  36.707  50.126
90916W        W82840  12.272  41.729  52.429
90917W        W82841   5.764  24.729  51.491
90918W        W82842  37.712  47.189  53.816
90919W        W82843   5.786   0.273  51.077
90920W        W82844  21.244  46.701  50.156
90921W        W82845  25.710  36.735  51.074
90922W        W82846  39.211   8.262  51.961
90923W        W82847  11.780  32.224  50.142
90924W        W82848  36.239  25.752  51.051
90925W        W82849   8.742  14.765  51.070
90926W        W82850  29.729  21.731  52.437
90927W        W82851  43.688  14.256  52.445
90928W        W82852  30.203  34.225  50.151
90929W        W82853  24.709   7.738  51.503
90930W        W82854  38.728   3.745  51.076
90931W        W82855   2.266  20.245  51.491
90932W        W82856  42.721  22.257  53.359
90933W        W82857  44.198  20.720  51.515
90934W        W82858  21.738  26.240  50.580
90935W        W82859  14.273  20.223  51.490
90936W        W82860  31.223  12.231  50.162
90937W        W82861  15.238  16.254  49.703
90938W        W82862   7.768  25.743  51.522
90939W        W82863  27.235  10.234  50.152
90940W        W82864  16.267  18.239  53.817
90941W        W82865  26.208  40.709  52.870
90942W        W82866  30.202  15.748  50.158
90943W        W82867  23.219   2.782  51.972
90944W        W82868  38.232  24.736  53.352
90945W        W82869  29.232  11.238  53.321
90946W        W82870  40.720   6.269  50.136
90947W        W82871  45.676  20.727  50.146
90948W        W82872  15.248  33.196  50.134
90949W        W82873  36.715  25.240  53.780
90950W        W82874   2.274  33.239  49.667
90951W        W82875  44.215  21.753  53.325
90952W        W82876  37.219  11.769  50.599
90953W        W82877  15.254   8.243  51.043
90954W        W82878   2.286  38.227  50.608
90955W        W82879  44.226  29.247  53.799
90956W        W82880   7.265  18.739  50.599
90957W        W82881  25.226  45.724  53.329
90958W        W82882  44.207  19.251  50.126
90959W        W82883  33.744  47.181  50.124
90960W        W82884  37.725  35.710  52.868
90961W        W82885  13.254  37.205  52.411
90962W        W82886  30.201  28.240  51.956
90963W        W82887  23.717  25.709  53.347
90964W        W82888  18.242  36.217  52.885
90965W        W82889   7.768   8.760  51.046
90966W        W82890  22.742  12.258  52.406
90967W        W82891  40.730   4.252  51.970
90968W        W82892  11.768   3.787  50.156
90969W        W82893  39.187   5.780  51.073
90970W        W82894   3.752  18.231  52.410
90971W        W82895  17.740   3.249  53.325
90972W        W82896  39.229   1.766  51.502
90973W        W82897  28.722  15.272  52.899
90974W        W82898  11.763  24.250  53.336
90975W        W82899  39.235   7.741  52.888
90976W        W82900  20.249  28.222  53.801
90977W        W82901  10.760  21.233  52.423
90978W        W82902  26.732  18.769  50.140
90979W        W82903  39.206  19.721  52.862
90980W        W82904  48.192  39.689  52.899
90981W        W82905   1.257  26.215  50.599
90982W        W82906  17.737   2.748  49.675
90983W        W82907  20.744  41.204  53.322
90984W        W82908  28.225  32.703  50.143
90985W        W82909  41.212  41.223  51.963
90986W        W82910  10.266   6.242  50.122
90987W        W82911  46.190  42.689  53.778
90988W        W82912  10.779  19.259  50.141
90989W        W82913  45.695  30.732  52.428
90990W        W82914  40.684  31.246  51.061
90991W        W82915  29.744  10.252  50.143
90992W        W82916   4.756  27.748  50.592
90993W        W82917  35.717  37.201  49.690
90994W        W82918  11.257  19.757  51.497
90995W        W82919  43.215  36.738  53.796
90996W        W82920  48.184  42.728  50.600
90997W        W82921   6.774  46.708  49.686
90998W        W82922   7.776   3.768  51.496
90999W        W82923   0.785  16.230  53.354
91000W        W82924  35.199   0.286  53.319
91001W        W82925  23.242  33.218  49.671
91002W        W82926  44.192  21.739  52.428
91003W        W82927  20.763  11.273  50.586
91004W        W82928  41.190  46.708  50.597
91005W        W82929  29.704  39.713  51.516
91006W        W82930   6.769   5.255  52.425
91007W        W82931  36.717   0.271  50.137
91008W        W82932  24.216   2.766  52.437
91009W        W82933   7.270   9.255  53.317
91010W        W82934   4.255   6.781  53.345
91011W        W82935  44.694  20.720  50.581
91012W        W82936  15.260   3.772  51.986
91013W        W82937  41.700   9.278  53.354
91014W        W82938   7.246   4.268  49.695
91015W        W82939  40.684  47.682  51.518
91016W        W82940  36.222  22.247  52.882
91017W        W82941  44.216   6.263  51.496
91018W        W82942  27.721  36.227  51.520
91019W        W82943  34.231  14.262  53.343
91020W        W82944   5.286  37.710  52.417
91021W        W82945   6.244   9.770  52.422
91022W        W82946  11.244  20.255  52.430
91023W        W82947  21.248  16.743  52.427
91024W        W82948   9.271   8.745  51.491
91025W        W82949  14.761  22.217  50.155
91026W        W82950  33.697  20.253  50.615
91027W        W82951  28.243   6.778  50.612
91028W        W82952  39.696  47.182  51.056
91029W        W82953  11.752  13.768  49.689
91030W        W82954  16.738  45.213  53.343
91031W        W82955  10.254  48.188  50.608
91032W        W82956   9.744  47.686  53.334
91033W        W82957  30.217   6.277  50.157
91034W        W82958  30.213  26.210  53.358
91035W        W82959  24.213  17.248  52.894
91036W        W82960   7.287  37.235  52.874
91037W        W82961  11.257  18.761  53.349
91038W        W82962  46.722   6.778  53.799
91039W        W82963  39.698  33.203  50.148
91040W        W82964  13.746  12.246  53.803
91041W        W82965  23.722   3.286  52.441
91042W        W82966  12.252  40.211  53.816
91043W        W82967  44.699  39.697  51.534
91044W        W82968  46.694   7.775  50.151
91045W        W82969  25.745   6.263  53.774
91046W        W82970  22.751  16.227  52.446
91047W        W82971  31.222  25.237  53.322
91048W        W82972   5.244  26.230  49.703
91049W        W82973  39.714   7.758  51.051
91050W        W82974   9.252  27.726  51.502
91051W        W82975   7.284   7.767  50.619
91052W        W82976  36.705  32.718  51.044
91053W        W82977  36.701  43.682  50.607
91054W        W82978  42.724  30.225  51.977
91055W        W82979   2.294  27.251  51.052
91056W        W82980  16.236  30.721  50.589
91057W        W82981  41.216  41.727  51.519
91058W        W82982  39.214  17.236  49.665
91059W        W82983  27.245  27.241  51.947
91060W        W82984  38.736  15.263  50.589
91061W        W82985  46.675  36.203  53.804
91062W        W82986   9.277  27.747  49.666
91063W        W82987   7.749  46.219  53.792
91064W        W82988  34.232   3.283  51.493
91065W        W82989   0.781  48.195  52.436
91066W        W82990  37.215  26.719  49.696
91067W        W82991  23.221  12.778  50.146
91068W        W82992  11.259  20.225  53.324
91069W        W82993  40.195  39.194  51.069
91070W        W82994  41.722  12.266  52.431
91071W        W82995  35.729  11.235  51.984
91072W        W82996   4.267  47.217  52.876
91073W        W82997  39.195  26.228  53.324
91074W        W82998   4.249   2.782  49.678
91075W        W82999  39.234  12.751  49.668
91076W        W83000  19.737  26.724  49.705
91077W        W83001  13.257   0.288  53.348
91078W        W83002  24.715  27.233  51.490
91079W        W83003  18.742  30.722  51.058
91080W        W83004   0.296  25.731  51.965
91081W        W83005  18.766   0.257  50.161
91082W        W83006  25.210  24.257  51.972
91083W        W83007   2.248  22.259  51.066
91084W        W83008  43.681  36.208  53.780
91085W        W83009  35.223  22.750  52.876
91086W        W83010  16.267  26.246  52.421
91087W        W83011  25.217  43.220  49.696
91088W        W83012  38.690  43.713  49.682
91089W        W83013  12.753  15.258  52.890
91090W        W83014   7.278  43.708  49.693
91091W        W83015  48.213   6.781  50.601
91092W        W83016  41.693  26.715  51.510
91093W        W83017  17.244  29.213  52.406
91094W        W83018  42.684  46.197  51.064
91095W        W83019  47.220   3.779  53.791
91096W        W83020  26.213  31.714  49.670
91097W        W83021  17.761  12.256  52.430
91098W        W83022   5.767  40.706  53.814
91099W        W83023  14.241  13.753  51.527
91100W        W83024  24.724  27.249  53.334
91101W        W83025  29.238  46.695  51.964
91102W        W83026   8.258  23.239  53.801
91103W        W83027  20.742  21.757  53.815
91104W        W83028  48.206  15.765  49.674
91105W        W83029  32.726   5.250  50.621
91106W        W83030  17.726   1.285  50.165
91107W        W83031  48.210  20.761  50.152
91108W        W83032  47.201  12.763  53.356
91109W        W83033   9.780  36.225  50.623
91110W        W83034  10.270  35.199  51.985
91111W        W83035  27.731  24.728  53.803
91112W        W83036  43.683  28.207  51.973
91113W        W83037  22.233  34.722  53.799
91114W        W83038  10.278   3.769  51.064
91115W        W83039  39.728  17.764  50.585
91116W        W83040  34.201  18.733  53.348
91117W        W83041  11.756  37.223  51.514
91118W        W83042   5.291  17.737  51.522
91119W        W83043  28.724  33.710  50.588
91120W        W83044  16.737  33.203  52.887
91121W        W83045  12.277  31.700  51.043
91122W        W83046  16.764   3.263  49.694
91123W        W83047   1.269  33.224  51.061
91124W        W83048  17.736  45.714  51.076
91125W        W83049  26.236  17.262  53.338
91126W        W83050  25.728  37.693  53.344
91127W        W83051  13.759  13.777  50.595
91128W        W83052   4.766  21.251  50.137
91129W        W83053  27.728   0.753  50.153
91130W        W83054  35.220  47.187  51.506
91131W        W83055   4.254  39.726  50.622
91132W        W83056  36.237  40.218  51.513
91133W        W83057  21.741  19.762  50.154
91134W        W83058  47.690  33.718  51.057
91135W        W83059  20.230  25.746  50.598
91136W        W83060  45.225  38.732  53.785
91137W        W83061  24.725  36.216  50.135
91138W        W83062  14.248  18.238  50.154
91139W        W83063  28.731  14.754  50.622
91140W        W83064   1.761  23.237  52.883
91141W        W83065  11.279  30.708  51.534
91142W        W83066  28.726   2.775  51.050
91143W        W83067   9.780   4.281  50.157
91144W        W83068   0.794  36.694  51.044
91145W        W83069   7.252   7.267  50.583
91146W        W83070  39.721  29.215  50.615
91147W        W83071  10.269  10.779  53.801
91148W        W83072  29.215  28.722  53.337
91149W        W83073  47.181  43.697  53.798
91150W        W83074  30.714   9.268  51.968
91151W        W83075  21.228  29.214  51.035
91152W        W83076  39.189  28.214  50.618
91153W        W83077  21.259  41.211  50.621
91154W        W83078  19.243  23.219  50.141
91155W        W83079   9.275  39.221  51.951
91156W        W83080  34.215  38.720  51.068
91157W        W83081  39.220  23.718  51.984
91158W        W83082   3.257   3.255  51.074
91159W        W83083  20.762  12.271  52.442
91160W        W83084  33.224   6.272  51.510
91161W        W83085   0.791  27.243  53.798
91162W        W83086  18.730  44.679  53.359
91163W        W83087   9.759   4.265  53.795
91164W        W83088   8.774  12.768  49.670
91165W        W83089   6.741  16.747  50.620
91166W        W83090  20.240  38.215  50.616
91167W        W83091  11.249   2.251  49.684
91168W        W83092  39.188  18.243  49.698
91169W        W83093   5.267  28.226  51.509
91170W        W83094  21.737   8.269  49.682
91171W        W83095  19.257  47.685  52.901
91172W        W83096  28.707   3.762  51.947
91173W        W83097  40.687  22.260  52.900
91174W        W83098   7.777  25.249  51.532
91175W        W83099   6.261  40.684  49.688
91176W        W83100  22.718  30.747  52.438
91177W        W83101  45.210   2.283  50.611
91178W        W83102  15.756  26.744  51.947
91179W        W83103   8.748   2.280  50.159
91180W        W83104   4.775  38.187  52.430
91181W        W83105  39.212  22.737  49.697
91182W        W83106  22.738  45.722  52.429
91183W        W83107  45.207   3.749  53.793
91184W        W83108  10.235  23.721  51.040
91185W        W83109  15.768  11.239  52.885
91186W        W83110  48.214  29.214  51.958
91187W        W83111  23.224  19.767  49.666
91188W        W83112  25.749  16.762  50.156
91189W        W83113  20.716  39.709  51.064
91190W        W83114  11.232  32.201  52.898
91191W        W83115  42.711   8.769  52.419
91192W        W83116  39.233  36.225  52.435
91193W        W83117  15.736  17.727  51.493
91194W        W83118   0.765  41.729  53.357
91195W        W83119  27.721  44.700  51.062
91196W        W83120  27.718  39.214  51.522
91197W        W83121  24.221  22.756  50.153
91198W        W83122  20.761  25.254  50.126
91199W        W83123  24.210  29.203  52.876
91200W        W83124  16.250   2.787  52.440
91201W        W83125  31.236  42.680  51.957
91202W        W83126  29.243  38.691  52.407
91203W        W83127  24.719   6.282  52.904
91204W        W83128  40.689  15.235  52.860
91205W        W83129  19.722  35.701  51.074
91206W        W83130   0.750   0.280  53.330
91207W        W83131   0.772  18.241  53.797
91208W        W83132  43.210   8.776  49.693
91209W        W83133  23.749   0.297  50.121
91210W        W83134  43.184  17.770  53.790
91211W        W83135   0.251  22.759  52.905
91212W        W83136  36.228  45.182  50.622
91213W        W83137  43.221   8.274  50.148
91214W        W83138  14.232  10.764  52.405
91215W        W83139  41.699  16.754  51.985
91216W        W83140  41.693   2.784  50.134
91217W        W83141  19.240   4.769  52.880
91218W        W83142   9.244  22.259  51.506
91219W        W83143  29.247  27.741  50.589
91220W        W83144  19.247  12.777  51.505
91221W        W83145  34.201  38.199  53.814
91222W        W83146  20.234  29.733  50.164
91223W        W83147   8.237  21.263  50.139
91224W        W83148   7.246  12.733  49.701
91225W        W83149   8.250  27.724  53.353
91226W        W83150  41.705  29.212  51.493
91227W        W83151   9.744   0.777  51.060
91228W        W83152  47.708  45.191  49.699
91229W        W83153   5.284  28.748  49.694
91230W        W83154   3.758  30.247  50.591
91231W        W83155   5.287   6.763  51.965
91232W        W83156   6.781  24.249  53.343
91233W        W83157  36.235  43.703  49.690
91234W        W83158  34.194  40.202  51.507
91235W        W83159  37.726  29.702  53.336
91236W        W83160  23.733  23.259  53.812
91237W        W83161   2.273  30.709  50.142
91238W        W83162  41.191  41.209  53.327
91239W        W83163   7.751  29.246  51.957
91240W        W83164  22.236   5.780  49.670
91241W        W83165   3.769  23.733  51.982
91242W        W83166  48.177  11.245  52.898
91243W        W83167  38.730  39.690  49.705
91244W        W83168  36.695  42.700  50.128
91245W        W83169   1.778  18.241  53.354
91246W        W83170  33.721  34.736  53.785
91247W        W83171   7.757  32.721  52.881
91248W        W83172  12.249   6.269  50.617
91249W        W83173  41.225   3.750  51.519
91250W        W83174  27.247  16.267  53.777
91251W        W83175  33.199  45.721  51.509
91252W        W83176  22.740  10.772  51.064
91253W        W83177  22.242   1.263  52.419
91254W        W83178  37.693   0.291  52.873
91255W        W83179  11.248  23.256  51.500
91256W        W83180   2.255  17.250  52.441
91257W        W83181   4.750   1.278  53.797
91258W        W83182  16.238  45.692  50.613
91259W        W83183  47.693  45.717  50.133
91260W        W83184  32.719  10.271  51.524
91261W        W83185   2.288   1.271  50.580
91262W        W83186  27.236  37.209  50.586
91263W        W83187  12.234  16.724  51.526
91264W        W83188   3.769  44.689  50.162
91265W        W83189  31.229   5.762  52.880
91266W        W83190  43.698   1.256  50.587
91267W        W83191  14.265   5.283  52.412
91268W        W83192   0.261  40.185  52.433
91269W        W83193  14.765  32.203  51.492
91270W        W83194  30.207  13.768  49.677
91271W        W83195  24.715  26.720  50.163
91272W        W83196  16.742  33.741  52.903
91273W        W83197   9.253  44.225  52.869
91274W        W83198  47.186   0.762  50.579
91275W        W83199  45.210   7.282  51.044
91276W        W83200  43.715  13.271  52.901
91277W        W83201  40.233  41.210  52.419
91278W        W83202  35.734  23.754  53.353
91279W        W83203  10.235  23.252  53.338
91280W        W83204  40.695  47.690  49.681
91281W        W83205  24.725   5.279  51.034
91282W        W83206  37.689   6.245  51.987
91283W        W83207  39.204  37.699  53.345
91284W        W83208  32.246  37.711  50.138
91285W        W83209  31.219  43.226  51.987
91286W        W83210  30.244  15.262  52.894
91287W        W83211  20.247  45.184  51.072
91288W        W83212  43.198   2.275  50.132
91289W        W83213  31.726   1.758  53.318
91290W        W83214  29.747   9.238  51.978
91291W        W83215  16.235  41.687  50.153
91292W        W83216   7.279  25.736  51.047
91293W        W83217  43.198  27.704  49.696
91294W        W83218  20.247  43.209  52.898
91295W        W83219   6.255   7.285  51.963
91296W        W83220  17.762  14.229  51.076
91297W        W83221  46.697  11.769  53.354
91298W        W83222  24.216   7.782  53.817
91299W        W83223   8.281   2.280  52.898
91300W        W83224  47.688  22.753  51.979
91301W        W83225   7.738   5.254  50.597
91302W        W83226   3.760  34.232  53.785
91303W        W83227  43.718   3.267  50.617
91304W        W83228  27.238  28.216  53.773
91305W        W83229  38.690  42.701  53.339
91306W        W83230  10.773  46.712  52.901
91307W        W83231  40.209  23.257  51.968
91308W        W83232  30.227  48.212  51.060
91309W        W83233  27.740   2.754  53.814
91310W        W83234  31.221  15.729  51.974
91311W        W83235  15.739  19.759  52.862
91312W        W83236  44.720  31.231  51.960
91313W        W83237   4.758  32.245  53.337
91314W        W83238   6.784  14.261  51.039
91315W        W83239  10.272  21.752  53.347
91316W        W83240  35.701   8.244  53.794
91317W        W83241  34.725  34.233  51.971
91318W        W83242  15.763  28.747  53.801
91319W        W83243  32.707   4.750  52.444
91320W        W83244  22.730  22.223  51.974
91321W        W83245  33.208  46.693  50.128
91322W        W83246   7.782  48.219  49.669
91323W        W83247  25.218   4.255  52.865
91324W        W83248  42.688  18.261  53.353
91325W        W83249  22.748  22.733  51.065
91326W        W83250  11.777  33.727  52.447
91327W        W83251  11.778  17.235  50.617
91328W        W83252  25.258  23.241  51.523
91329W        W83253  18.256  15.268  53.349
91330W        W83254  12.270  40.723  53.801
91331W        W83255  33.234  42.187  52.419
91332W        W83256  35.732  44.178  49.665
91333W        W83257   4.267  30.205  49.685
91334W        W83258  29.236   5.777  53.800
91335W        W83259  14.746   9.253  52.411
91336W        W83260  43.698  36.222  50.589
91337W        W83261   6.270  14.258  52.894
91338W        W83262  28.713  40.706  50.610
91339W        W83263  24.738  38.231  51.527
91340W        W83264   3.291  24.225  51.525
91341W        W83265  36.717  26.716  51.517
91342W        W83266  19.230  36.218  49.671
91343W        W83267  30.736  31.730  53.806
91344W        W83268  43.700  46.207  52.870
91345W        W83269  48.185  31.221  52.403
91346W        W83270  30.230  41.206  51.532
91347W        W83271  31.715  17.722  53.796
91348W        W83272  42.186  10.267  52.864
91349W        W83273  44.223  27.239  51.500
91350W        W83274  40.685   9.747  50.160
91351W        W83275  36.737   9.783  53.329
91352W        W83276  46.697  37.236  51.978
91353W        W83277  13.755  36.730  53.332
91354W        W83278  24.210   7.764  53.350
91355W        W83279  20.243  10.277  51.034
91356W        W83280  30.244   8.745  51.986
91357W        W83281   0.774  41.208  51.530
91358W        W83282  28.251  17.744  49.680
91359W        W83283  48.178  26.207  51.514
91360W        W83284   6.783  47.191  52.411
91361W        W83285  14.274   6.245  52.887
91362W        W83286  41.209   6.753  52.415
91363W        W83287  48.217  35.737  51.953
91364W        W83288  19.752  23.234  51.514
91365W        W83289   2.287   5.742  53.354
91366W        W83290  47.714  39.230  50.611
91367W        W83291   9.264  16.764  52.896
91368W        W83292  31.234   0.781  49.669
91369W        W83293   1.269  41.182  50.608
91370W        W83294  43.718  41.198  49.665
91371W        W83295  40.221  41.705  49.697
91372W        W83296   2.764  40.191  53.802
91373W        W83297  35.712   4.276  52.438
91374W        W83298   5.263  32.731  53.351
91375W        W83299  26.706  18.723  51.035
91376W        W83300  43.205   3.257  50.153
91377W        W83301  19.736  39.227  53.788
91378W        W83302   2.257  37.721  52.872
91379W        W83303  45.722   7.768  53.776
91380W        W83304  34.707  41.717  53.332
91381W        W83305  14.755  21.265  53.789
91382W        W83306  41.198  34.712  51.501
91383W        W83307  33.224  17.751  53.793
91384W        W83308   7.765  42.688  51.953
91385W        W83309  29.238  12.261  53.354
91386W        W83310  46.195  16.259  51.948
91387W        W83311  28.722  34.719  50.139
91388W        W83312  30.208   0.749  52.874
91389W        W83313  16.744  47.209  49.699
91390W        W83314   7.738  20.252  49.702
91391W        W83315  33.710  14.760  52.418
91392W        W83316  29.249  25.226  51.491
91393W        W83317  32.730   0.751  49.665
91394W        W83318  30.708  39.702  50.148
91395W        W83319  47.214  19.767  52.443
91396W        W83320  21.741  18.764  50.130
91397W        W83321  39.202  21.251  51.508
91398W        W83322  36.693  35.738  51.497
91399W        W83323  22.222  13.238  53.316
91400W        W83324  40.223  20.732  50.587
91401W        W83325  27.716   9.271  50.125
91402W        W83326  20.723  23.256  53.803
91403W        W83327  12.236  27.240  51.534
91404W        W83328  32.201   7.245  51.034
91405W        W83329   2.278   9.252  50.600
91406W        W83330  29.223  31.244  50.614
91407W        W83331   1.261  37.233  53.813
91408W        W83332  41.197   6.283  52.424
91409W        W83333  35.702  33.714  49.707
91410W        W83334  21.743  27.746  52.417
91411W        W83335  37.202  46.679  51.503
91412W        W83336  19.741  38.225  52.863
91413W        W83337  17.760  32.715  53.809
91414W        W83338  33.700  11.746  51.066
91415W        W83339  41.712   7.270  53.340
91416W        W83340  23.253  44.689  53.333
91417W        W83341  38.691  12.256  51.060
91418W        W83342  27.209   9.247  51.529
91419W        W83343  42.188  11.252  50.160
91420W        W83344  19.237  12.746  53.788
91421W        W83345  24.251  34.702  51.495
91422W        W83346  43.699  35.701  51.493
91423W        W83347  40.695  39.711  51.047
91424W        W83348  40.689  35.206  52.901
91425W        W83349  14.263  43.719  49.676
91426W        W83350  21.747  29.733  52.407
91427W        W83351  48.180   7.775  50.604
91428W        W83352   6.270  36.211  51.059
91429W        W83353  24.247  19.729  51.957
91430W        W83354  33.719  19.251  49.673
91431W        W83355  19.237  24.753  52.903
91432W        W83356  28.242  27.227  52.882
91433W        W83357   1.750  13.269  52.898
91434W        W83358  21.718  34.718  50.130
91435W        W83359  33.224   3.768  52.881
91436W        W83360  38.234   1.297  52.426
91437W        W83361  35.220  44.685  53.347
91438W        W83362  12.757  46.716  52.444
91439W        W83363  27.237   1.784  50.122
91440W        W83364  33.696   2.296  51.490
91441W        W83365  24.243   5.783  51.959
91442W        W83366  38.705  46.211  51.532
91443W        W83367  28.723  11.247  52.446
91444W        W83368  43.710  41.205  53.785
91445W        W83369  35.730   8.773  49.692
91446W        W83370  21.754  22.741  50.606
91447W        W83371  30.749  38.735  50.165
91448W        W83372  35.203  27.737  52.890
91449W        W83373  44.682  20.248  50.141
91450W        W83374  36.721  38.717  53.319
91451W        W83375  36.194  14.272  52.433
91452W        W83376  34.736  23.226  52.897
91453W        W83377  26.738  46.178  52.426
91454W        W83378  19.734   0.789  52.885
91455W        W83379  46.223  39.725  51.499
91456W        W83380  45.211  14.263  51.518
91457W        W83381  14.273  45.682  51.963
91458W        W83382   4.291   3.247  53.360
91459W        W83383  29.237  17.222  49.672
91460W        W83384  33.731  33.697  53.343
91461W        W83385  16.727  31.199  51.502
91462W        W83386  24.744   6.766  52.871
91463W        W83387  43.186  20.255  52.415
91464W        W83388  18.241  30.708  50.165
91465W        W83389   6.770  12.753  50.123
91466W        W83390  44.719  41.729  52.879
91467W        W83391  43.690  46.205  50.598
91468W        W83392  29.741   4.250  51.532
91469W        W83393   0.755  26.727  51.963
91470W        W83394  39.205  13.749  50.611
91471W        W83395   6.782  31.739  52.417
91472W        W83396  46.712   3.768  51.948
91473W        W83397  33.706   1.771  51.045
91474W        W83398  35.241  32.698  49.668
91475W        W83399  20.726  21.255  51.979
91476W        W83400   6.283  47.196  51.980
91477W        W83401  10.733  15.256  51.985
91478W        W83402  12.276  47.197  51.531
91479W        W83403   5.255   9.272  52.871
91480W        W83404   2.247  46.691  51.524
91481W        W83405  24.231  33.715  51.951
91482W        W83406  18.246  25.715  52.421
91483W        W83407   3.783  16.770  50.586
91484W        W83408  38.187  30.206  52.410
91485W        W83409  10.753   9.275  49.679
91486W        W83410  15.251  46.685  52.880
91487W        W83411   6.766  34.727  53.353
91488W        W83412  22.714  29.228  52.426
91489W        W83413  48.186  25.749  52.880
91490W        W83414   0.786  12.747  51.952
91491W        W83415  17.749   2.254  50.606
91492W        W83416   0.763  15.234  51.948
91493W        W83417  23.241  33.229  51.961
91494W        W83418  18.231  14.772  51.991
91495W        W83419  43.714  47.209  51.496
91496W        W83420  23.232  39.201  49.690
91497W        W83421  34.205  25.711  52.412
91498W        W83422  41.230   1.773  49.702
91499W        W83423  15.261   6.751  52.414
91500W        W83424  21.726  45.691  52.879
91501W        W83425  19.738  20.234  49.686
91502W        W83426  41.697   5.269  52.888
91503W        W83427   7.241   5.767  50.611
91504W        W83428  40.193  41.723  52.434
91505W        W83429  32.746  46.200  50.616
91506W        W83430  20.748  30.221  51.077
91507W        W83431  20.738   9.754  51.948
91508W        W83432  40.228  32.700  49.666
91509W        W83433   0.771  28.744  52.898
91510W        W83434  21.740  43.181  53.332
91511W        W83435  16.263  25.754  52.438
91512W        W83436  22.762  33.224  50.591
91513W        W83437  13.243  41.696  52.885
91514W        W83438  34.710  14.760  51.038
91515W        W83439  35.709   2.763  50.606
91516W        W83440  26.712  18.261  53.799
91517W        W83441  40.206  46.718  50.590
91518W        W83442  22.246  23.751  53.814
91519W        W83443  28.719  41.188  50.583
91520W        W83444  47.191  26.737  51.503
91521W        W83445   9.273  18.244  51.517
91522W        W83446  19.725  13.745  49.678
91523W        W83447  25.251  44.196  52.882
91524W        W83448  37.203  28.737  52.901
91525W        W83449   9.762   2.285  51.048
91526W        W83450   3.781   3.248  51.966
91527W        W83451  13.251  46.690  49.680
91528W        W83452   5.264  22.735  53.791
91529W        W83453  40.195  23.720  49.694
91530W        W83454  14.264  32.237  51.059
91531W        W83455   7.755  14.254  52.414
91532W        W83456  11.257  41.211  50.122
91533W        W83457  27.727  46.209  51.974
91534W        W83458  12.760  31.222  53.781
91535W        W83459  42.200  46.214  53.352
91536W        W83460  37.223  35.203  52.902
91537W        W83461   4.281   7.771  51.976
91538W        W83462  28.738  19.234  51.518
91539W        W83463   6.277  34.198  49.674
91540W        W83464   6.747  24.726  51.509
91541W        W83465  47.710  32.199  50.613
91542W        W83466  34.705  13.258  51.062
91543W        W83467  33.234   5.266  51.070
91544W        W83468   0.294  33.714  50.617
91545W        W83469  25.209   1.752  52.881
91546W        W83470  45.216  30.238  50.140
91547W        W83471  19.744  16.772  53.360
91548W        W83472  26.243  23.229  52.868
91549W        W83473   1.779   2.294  50.619
91550W        W83474  30.200   6.770  52.444
91551W        W83475   4.261  46.712  50.595
91552W        W83476  27.231  35.235  52.415
91553W        W83477  18.733  13.749  51.514
91554W        W83478  43.707   6.254  53.782
91555W        W83479  37.191   3.277  53.337
91556W        W83480  11.253  42.716  49.705
91557W        W83481  16.735  20.751  51.521
91558W        W83482  32.228  32.229  52.429
91559W        W83483   3.292  12.266  53.360
91560W        W83484  22.232  25.239  50.585
91561W        W83485  29.237  40.688  53.353
91562W        W83486   8.745   5.249  53.327
91563W        W83487  45.702  38.234  50.153
91564W        W83488  11.273  45.678  49.676
91565W        W83489  26.719  20.233  53.798
91566W        W83490  37.221  42.707  51.977
91567W        W83491  24.227  14.260  52.872
91568W        W83492  37.211  44.211  51.522
91569W        W83493  33.236  12.256  51.072
91570W        W83494  41.201  45.185  52.881
91571W        W83495  40.724  28.204  50.153
91572W        W83496  31.737  24.247  52.432
91573W        W83497   9.241   0.250  50.596
91574W        W83498  23.261  24.747  51.981
91575W        W83499  44.722   6.777  52.425
91576W        W83500  48.185   3.791  50.605
91577W        W83501  14.272  25.742  51.962
91578W        W83502   8.280  46.181  51.079
91579W        W83503  40.724  36.193  52.434
91580W        W83504  37.195  20.751  52.859
91581W        W83505  44.184  36.717  52.421
91582W        W83506  35.737  41.689  51.532
91583W        W83507  31.731   8.275  52.863
91584W        W83508   3.290  15.270  52.884
91585W        W83509  15.728  27.749  52.415
91586W        W83510  31.719  36.719  50.158
91587W        W83511  42.693  25.234  52.448
91588W        W83512  10.251   6.763  49.668
91589W        W83513  33.216  47.183  51.042
91590W        W83514  37.196  15.749  51.517
91591W        W83515  43.200  31.210  50.149
91592W        W83516  46.699  32.732  52.446
91593W        W83517   0.292  20.735  51.515
91594W        W83518  46.210  30.236  53.322
91595W        W83519  41.716  37.230  53.336
91596W        W83520  33.214  46.181  50.597
91597W        W83521   6.282  22.735  51.043
91598W        W83522   5.249  47.705  51.986
91599W        W83523  13.261  16.267  51.050
91600W        W83524   7.281   5.249  52.882
91601W        W83525   3.285  31.228  52.435
91602W        W83526   5.242  15.246  52.428
91603W        W83527  16.237  42.223  51.952
91604W        W83528  35.738  34.219  52.419
91605W        W83529   2.793  42.186  53.328
91606W        W83530  21.750  39.204  52.902
91607W        W83531  18.235   1.785  52.901
91608W        W83532  36.694  20.737  51.962
91609W        W83533  19.727  15.229  51.059
91610W        W83534  41.216  19.245  50.125
91611W        W83535   5.287  37.197  52.879
91612W        W83536   7.750   2.766  50.141
91613W        W83537  36.724  16.266  52.436
91614W        W83538  47.211  20.719  51.054
91615W        W83539   3.756  14.256  51.072
91616W        W83540  47.192  13.262  53.791
91617W        W83541  12.231   3.268  52.430
91618W        W83542  45.189   0.755  50.621
91619W        W83543  31.738   4.747  49.681
91620W        W83544  14.762  16.256  52.893
91621W        W83545   2.286  24.236  53.776
91622W        W83546  39.227  46.721  53.352
91623W        W83547  36.229  18.232  53.775
91624W        W83548   1.791  40.698  53.344
91625W        W83549  47.720   7.280  50.614
91626W        W83550  42.692  41.186  53.331
91627W        W83551  21.235  11.775  51.508
91628W        W83552   2.766   1.772  51.506
91629W        W83553  44.724  14.750  53.799
91630W        W83554   4.260   0.285  51.952
91631W        W83555  30.201   0.282  50.166
91632W        W83556  31.739  36.214  49.667
91633W        W83557   8.766  34.703  51.041
91634W        W83558  33.206  31.743  52.868
91635W        W83559  30.705  41.710  51.514
91636W        W83560   8.253  25.238  50.609
91637W        W83561  23.255  16.269  50.614
91638W        W83562   1.250  38.689  52.859
91639W        W83563   5.283  14.265  51.040
91640W        W83564  13.248  21.256  53.335
91641W        W83565   3.259  12.265  53.813
91642W        W83566  33.720  18.232  51.973
91643W        W83567  20.727  47.204  51.969
91644W        W83568  10.250  37.235  50.613
91645W        W83569  40.722  30.239  49.701
91646W        W83570  34.706   2.781  53.799
91647W        W83571   5.246  46.682  51.042
91648W        W83572   5.246  33.716  52.890
91649W        W83573   0.284  34.718  49.688
91650W        W83574  29.709  36.205  50.623
91651W        W83575  17.754  45.199  51.986
91652W        W83576  20.742  45.704  49.675
91653W        W83577  13.755   9.249  53.358
91654W        W83578  32.735  25.730  51.955
91655W        W83579  25.234  21.731  53.816
91656W        W83580  32.732  19.249  53.812
91657W        W83581  48.201   8.263  53.786
91658W        W83582   1.778  35.200  50.132
91659W        W83583  41.683  31.723  52.431
91660W        W83584   9.738  11.747  51.049
91661W        W83585  33.233  27.240  49.685
91662W        W83586  28.224  33.235  50.595
91663W        W83587  13.732  27.231  53.776
91664W        W83588  23.741  41.691  50.155
91665W        W83589  41.683   7.273  51.071
91666W        W83590  22.762   1.790  51.508
91667W        W83591  14.257   9.271  53.802
91668W        W83592  23.721  27.235  50.609
91669W        W83593  29.228  48.172  50.601
91670W        W83594  24.246  39.232  51.987
91671W        W83595   5.266   8.274  53.345
91672W        W83596  47.202  21.256  53.338
91673W        W83597  12.758  25.254  52.902
91674W        W83598  23.720  47.674  50.594
91675W        W83599   6.764  44.204  52.866
91676W        W83600  34.239   5.783  50.599
91677W        W83601  21.225   9.277  53.813
91678W        W83602   9.266   7.273  51.506
91679W        W83603  36.713  23.226  51.066
91680W        W83604  17.238  12.738  51.979
91681W        W83605  16.758  29.738  52.895
91682W        W83606   9.272  25.226  53.799
91683W        W83607  35.226  36.195  52.437
91684W        W83608  14.275  48.219  50.131
91685W        W83609  48.207  38.229  51.046
91686W        W83610  47.721   4.245  52.885
91687W        W83611  13.740  19.231  51.053
91688W        W83612   8.748  39.713  51.535
91689W        W83613  25.230  23.222  52.448
91690W        W83614  25.730  24.217  53.779
91691W        W83615  44.695  48.177  50.619
91692W        W83616  38.212   0.263  51.059
91693W        W83617   9.250  15.736  53.359
91694W        W83618  42.711  12.740  51.520
91695W        W83619  27.714   6.247  49.704
91696W        W83620  15.744  45.211  51.531
91697W        W83621  26.229  16.253  53.361
91698W        W83622  21.729  44.702  53.342
91699W        W83623  37.196  41.720  53.774
91700W        W83624  19.759   7.262  50.601
91701W        W83625   7.752  46.707  51.511
91702W        W83626   5.755  47.189  50.126
91703W        W83627  39.224  22.250  50.135
91704W        W83628   7.766   3.246  52.872
91705W        W83629  38.193  36.208  51.036
91706W        W83630   8.755  36.218  50.612
91707W        W83631  27.732  16.252  53.353
91708W        W83632   0.291  45.698  49.668
91709W        W83633   8.268   1.292  49.691
91710W        W83634  40.722  47.707  51.067
91711W        W83635  33.235  30.248  51.987
91712W        W83636  46.706  15.248  51.979
91713W        W83637  17.260   1.749  50.596
91714W        W83638  20.722  23.754  53.779
91715W        W83639  29.224  16.739  51.513
91716W        W83640  18.231  40.720  52.413
91717W        W83641  17.726  18.256  50.146
91718W        W83642  22.214  48.219  49.697
91719W        W83643  19.734   0.283  52.423
91720W        W83644   4.258  21.744  50.592
91721W        W83645  40.187  13.736  52.430
91722W        W83646   4.257  36.729  51.054
91723W        W83647  14.733   4.273  52.436
91724W        W83648   8.776  14.756  53.805
91725W        W83649  15.235  43.715  52.874
91726W        W83650  47.675  12.258  50.578
91727W        W83651  45.717  29.218  52.415
91728W        W83652  39.215  24.258  52.412
91729W        W83653   6.275  15.244  53.799
91730W        W83654  23.237  34.225  51.496
91731W        W83655   0.754   9.277  52.866
91732W        W83656  18.721  33.234  51.509
91733W        W83657  15.770  46.206  53.783
91734W        W83658  23.218  17.236  53.347
91735W        W83659  22.230  31.202  50.166
91736W        W83660  21.258  20.764  50.622
91737W        W83661  13.270   5.251  52.866
91738W        W83662  22.216  41.220  52.446
91739W        W83663  41.708  41.226  51.975
91740W        W83664   8.782  46.203  50.138
91741W        W83665  19.762  19.749  51.498
91742W        W83666  25.742  19.267  52.877
91743W        W83667   4.780  15.235  51.501
91744W        W83668  10.744  44.208  49.698
91745W        W83669  38.192  33.212  51.969
91746W        W83670  18.731  16.727  50.143
91747W        W83671  35.694  19.721  50.617
91748W        W83672  36.700  15.741  52.428
91749W        W83673   2.283  39.697  52.416
91750W        W83674  13.233  34.714  51.952
91751W        W83675   5.758  15.728  51.503
91752W        W83676  27.249  13.265  50.601
91753W        W83677   9.761   2.281  53.810
91754W        W83678  11.780  16.724  50.579
91755W        W83679  31.725  19.245  50.123
91756W        W83680   5.749   8.745  52.873
91757W        W83681  37.732  37.234  49.708
91758W        W83682  27.208  43.692  49.674
91759W        W83683  16.753  25.226  53.323
91760W        W83684  44.715  37.200  52.874
91761W        W83685  21.236  39.198  51.948
91762W        W83686  29.712  27.707  51.062
91763W        W83687  29.710  45.200  51.533
91764W        W83688  36.202  46.197  51.961
91765W        W83689  45.715  25.711  53.809
91766W        W83690   0.794  34.217  51.949
91767W        W83691  12.777  48.204  52.412
91768W        W83692  29.713  37.229  50.158
91769W        W83693  36.196  41.730  50.590
91770W        W83694  10.270  19.243  50.579
91771W        W83695  16.752  23.735  50.620
91772W        W83696   5.265  30.207  51.952
91773W        W83697  35.736   3.767  50.163
91774W        W83698  38.736  32.209  51.974
91775W        W83699  17.729   4.282  49.695
91776W        W83700   0.257  19.243  52.896
91777W        W83701   4.270  21.726  51.514
91778W        W83702  24.736  38.709  53.782
91779W        W83703  34.725  33.728  51.970
91780W        W83704  17.743  46.707  52.862
91781W        W83705  25.726   4.777  53.811
91782W        W83706  40.200   7.267  53.787
91783W        W83707  38.211   5.743  51.052
91784W        W83708   2.761   7.273  51.971
91785W        W83709  47.695  29.714  52.418
91786W        W83710  24.733  33.742  50.143
91787W        W83711  37.224  14.742  51.960
91788W        W83712   4.750   0.753  50.605
91789W        W83713  25.213  15.732  51.496
91790W        W83714  13.755  43.705  51.043
91791W        W83715  47.185  16.768  51.074
91792W        W83716  41.713  27.730  53.800
91793W        W83717   6.252  42.221  52.894
91794W        W83718   1.761  15.753  50.612
91795W        W83719  27.249  23.749  53.316
91796W        W83720  46.196  40.188  51.069
91797W        W83721   1.291   5.780  50.583
91798W        W83722  46.694  47.701  51.525
91799W        W83723  11.271  19.239  50.149
91800W        W83724  18.234   2.753  52.897
91801W        W83725  19.765  43.691  51.975
91802W        W83726  42.229  36.201  50.621
91803W        W83727  37.716   4.776  51.989
91804W        W83728  20.252  23.746  49.684
91805W        W83729  30.718  47.203  52.876
91806W        W83730  33.229  18.256  51.520
91807W        W83731  24.727  38.713  50.156
91808W        W83732  16.233  29.210  51.964
91809W        W83733  41.214  20.223  49.687
91810W        W83734  21.747  28.206  51.053
91811W        W83735  14.773   5.777  51.948
91812W        W83736  30.717  48.188  50.608
91813W        W83737  13.756  35.230  53.342
91814W        W83738   0.791  46.712  49.699
91815W        W83739  20.238  17.266  50.604
91816W        W83740  11.267  46.706  53.316
91817W        W83741  22.256  27.753  52.424
91818W        W83742  25.216  48.211  49.697
91819W        W83743  39.202   3.753  52.431
91820W        W83744  45.675  25.246  51.068
91821W        W83745  10.754  43.227  51.050
91822W        W83746  39.727  14.765  51.049
91823W        W83747  33.695  24.218  52.436
91824W        W83748  11.235  41.204  50.616
91825W        W83749  21.230  26.216  51.507
91826W        W83750  29.202  38.191  51.523
91827W        W83751  46.207  40.701  53.342
91828W        W83752  29.717  42.190  51.075
91829W        W83753  17.226   9.736  52.406
91830W        W83754  26.219  33.223  53.787
91831W        W83755  18.739  10.276  51.514
91832W        W83756  12.274   3.772  50.163
91833W        W83757  36.214  18.729  51.979
91834W        W83758  33.209  24.734  50.142
91835W        W83759  18.237  36.712  51.073
91836W        W83760  12.262  11.249  49.675
91837W        W83761  31.736  44.213  53.354
91838W        W83762  48.195  26.214  51.962
91839W        W83763  43.688   4.785  51.509
91840W        W83764  24.720  47.219  51.077
91841W        W83765   7.759   9.760  51.071
91842W        W83766  17.230  33.205  53.347
91843W        W83767  12.275  11.778  53.348
91844W        W83768  43.678   0.762  51.511
91845W        W83769  40.212  10.243  50.165
91846W        W83770  28.742   6.267  51.034
91847W        W83771  33.214  32.718  49.694
91848W        W83772  21.263  44.718  49.706
91849W        W83773  38.699   1.258  53.343
91850W        W83774  33.738   3.259  50.132
91851W        W83775  42.196  33.211  50.123
91852W        W83776  12.758  13.755  53.805
91853W        W83777  27.712   9.770  51.523
91854W        W83778  18.266  14.233  50.618
91855W        W83779  26.738  16.272  51.054
91856W        W83780  11.271  12.255  50.142
91857W        W83781  27.245  45.178  51.974
91858W        W83782   1.753  45.702  53.808
91859W        W83783  39.230  43.210  50.134
91860W        W83784  29.739  36.206  52.878
91861W        W83785  36.213  41.197  51.507
91862W        W83786  17.253  20.222  53.346
91863W        W83787   8.785  42.683  52.905
91864W        W83788  40.201  33.737  52.886
91865W        W83789  41.703   7.745  52.437
91866W        W83790   6.256  21.245  51.949
91867W        W83791  17.740  45.204  50.594
91868W        W83792  36.700  14.235  50.156
91869W        W83793  29.714  47.204  53.777
91870W        W83794  37.211  16.229  50.610
91871W        W83795   2.764  29.701  51.991
91872W        W83796   3.769  48.171  53.358
91873W        W83797  11.777  25.232  51.517
91874W        W83798  33.698  47.193  49.698
91875W        W83799  32.224   9.260  52.869
91876W        W83800  20.757   5.284  53.359
91877W        W83801  32.744  43.687  53.776
91878W        W83802  19.748  28.211  49.677
91879W        W83803  23.761  31.736  53.807
91880W        W83804  47.176  43.202  51.989
91881W        W83805   4.253  29.225  52.872
91882W        W83806  34.701  19.251  51.048
91883W        W83807  19.251  12.756  51.963
91884W        W83808  34.708  19.251  50.127
91885W        W83809  32.719   7.245  51.516
91886W        W83810  32.217  28.747  51.534
91887W        W83811   5.762  29.243  51.523
91888W        W83812  48.204  38.194  53.814
91889W        W83813  36.235  23.741  51.989
91890W        W83814  27.731  19.249  53.339
91891W        W83815  23.238  11.243  52.899
91892W        W83816  29.206  16.732  53.787
91893W        W83817  34.204  20.239  53.360
91894W        W83818  26.214   0.787  50.125
91895W        W83819  40.723  41.695  52.903
91896W        W83820  28.213   1.295  51.072
91897W        W83821  14.255  34.208  51.973
91898W        W83822  39.192  21.229  53.793
91899W        W83823  28.227  40.222  49.676
91900W        W83824  11.279  19.746  51.964
91901W        W83825  34.696   5.783  50.158
91902W        W83826  28.710  42.204  49.667
91903W        W83827  45.703  15.772  50.604
91904W        W83828  12.237   3.751  53.779
91905W        W83829  26.245  33.198  52.424
91906W        W83830  29.205   7.285  51.962
91907W        W83831  32.228   6.755  52.891
91908W        W83832  41.700   1.255  53.336
91909W        W83833   2.772  25.231  52.442
91910W        W83834  30.740  36.729  50.607
91911W        W83835  40.208  16.762  53.325
91912W        W83836  26.728  20.228  50.154
91913W        W83837  36.714  24.736  52.434
91914W        W83838  44.202  34.713  53.327
91915W        W83839  14.727  22.213  51.074
91916W        W83840  19.225  35.713  49.668
91917W        W83841  37.701  44.185  51.036
91918W        W83842  34.720  10.751  51.956
91919W        W83843  42.184  11.259  51.971
91920W        W83844  19.250  37.195  52.403
91921W        W83845  28.711  17.260  52.407
91922W        W83846  45.213   2.779  52.425
91923W        W83847  20.758  40.227  51.075
91924W        W83848  13.248  30.207  50.589
91925W        W83849  27.736  23.738  52.861
91926W        W83850  28.250   6.748  53.781
91927W        W83851  23.738  44.221  52.900
91928W        W83852  34.237   6.769  52.443
91929W        W83853  43.700  17.249  50.582
91930W        W83854  13.273   6.746  50.603
91931W        W83855  20.264  27.238  51.036
91932W        W83856   7.759  35.197  52.887
91933W        W83857  23.719  30.714  53.316
91934W        W83858  46.183  46.704  53.341
91935W        W83859  15.238  26.219  51.061
91936W        W83860   9.255   2.268  51.989
91937W        W83861  28.732  18.742  51.517
91938W        W83862   0.283  13.263  53.325
91939W        W83863   8.282  45.688  50.139
91940W        W83864  17.239  40.190  52.430
91941W        W83865  20.245   2.267  53.787
91942W        W83866  45.225  41.700  51.967
91943W        W83867  28.248   1.783  52.899
91944W        W83868  30.245  30.221  53.776
91945W        W83869  21.261  31.240  53.350
91946W        W83870  13.270  20.240  52.879
91947W        W83871  36.239  33.211  49.671
91948W        W83872  16.267  32.729  53.789
91949W        W83873   4.762  44.207  53.807
91950W        W83874  38.235  23.250  49.692
91951W        W83875  47.199  41.229  53.317
91952W        W83876  46.695  35.726  51.061
91953W        W83877  12.765   3.781  49.678
91954W        W83878  20.732  13.277  53.790
91955W        W83879  37.697  21.249  51.529
91956W        W83880  39.201  34.240  50.128
91957W        W83881  12.271   4.280  53.778
91958W        W83882   4.274   8.263  52.413
91959W        W83883  28.741  39.227  50.581
91960W        W83884  21.748  12.266  49.708
91961W        W83885   9.279  28.750  50.158
91962W        W83886  32.703  46.697  51.060
91963W        W83887  44.700  30.734  52.442
91964W        W83888  32.708  36.705  50.126
91965W        W83889  35.705  31.704  53.782
91966W        W83890  31.240  37.696  52.865
91967W        W83891   8.249  18.228  50.603
91968W        W83892  32.241  17.255  51.514
91969W        W83893   9.262  15.258  49.677
91970W        W83894  21.757  22.263  50.150
91971W        W83895  39.212  15.741  49.677
91972W        W83896  15.225  26.712  51.985
91973W        W83897  23.253  45.206  51.961
91974W        W83898  10.748  33.235  49.700
91975W        W83899   9.274  44.222  49.702
91976W        W83900  40.689  29.742  53.337
91977W        W83901  25.250  37.705  49.684
91978W        W83902  20.762   3.271  51.522
91979W        W83903  10.250  29.726  49.709
91980W        W83904  37.707   6.255  51.500
91981W        W83905  27.243  47.680  51.968
91982W        W83906  31.705  25.712  51.516
91983W        W83907  32.226  31.703  50.144
91984W        W83908  45.719   9.261  53.352
91985W        W83909  26.727   4.780  53.774
91986W        W83910  38.708  12.756  52.416
91987W        W83911  25.210  44.714  52.883
91988W        W83912  36.201  32.212  50.596
91989W        W83913   2.255  43.221  51.514
91990W        W83914   1.289  45.178  50.124
91991W        W83915  20.250  19.223  51.966
91992W        W83916   1.749  15.732  52.423
91993W        W83917  40.729   9.256  52.403
91994W        W83918  19.244  45.687  53.790
91995W        W83919  31.726   1.774  50.610
91996W        W83920  29.239   1.266  51.042
91997W        W83921  35.195  14.265  51.979
91998W        W83922   4.271  48.204  52.410
91999W        W83923  30.236  39.726  53.358
92000W        W83924   5.766  43.211  52.444
92001W        W83925  38.228  36.227  52.419
92002W        W83926  12.760  21.254  53.814
92003W        W83927  25.240  34.204  51.491
92004W        W83928  31.208   7.739  52.437
92005W        W83929  42.700  40.203  51.057
92006W        W83930   8.279   8.266  51.496
92007W        W83931  45.714  23.248  53.332
92008W        W83932   6.789   4.285  53.355
92009W        W83933  45.708  27.243  51.527
92010W        W83934   7.745  37.196  51.046
92011W        W83935   5.259   2.791  52.448
92012W        W83936  46.211  10.250  50.581
92013W        W83937   9.774   4.787  50.150
92014W        W83938  15.741   8.265  50.155
92015W        W83939  32.736  25.222  53.360
92016W        W83940  42.722  19.236  53.790
92017W        W83941  46.717  16.754  52.884
92018W        W83942  41.701  22.734  52.863
92019W        W83943  44.701   5.245  51.510
92020W        W83944  25.227  46.687  52.894
92021W        W83945   8.275  18.268  52.409
92022W        W83946  30.746  18.230  50.145
92023W        W83947  46.678   8.243  50.140
92024W        W83948  22.743   8.736  50.619
92025W        W83949  28.728   5.778  50.166
92026W        W83950  19.751   1.781  52.434
92027W        W83951  12.749  19.734  53.359
92028W        W83952  40.683  18.260  53.343
92029W        W83953  33.211  39.219  51.049
92030W        W83954  12.752  31.220  50.596
92031W        W83955  22.726  19.765  51.529
92032W        W83956   2.248   2.266  51.055
92033W        W83957  12.757  31.707  49.670
92034W        W83958  34.238  14.272  49.696
92035W        W83959   4.773  31.220  53.334
92036W        W83960  21.224   6.783  52.404
92037W        W83961   1.764  15.275  53.782
92038W        W83962   1.765  17.725  49.692
92039W        W83963  24.216  27.210  52.407
92040W        W83964   7.780   2.252  52.903
92041W        W83965  30.749  26.214  51.060
92042W        W83966  21.722  26.744  52.876
92043W        W83967  13.232  23.735  52.862
92044W        W83968  43.682   9.765  50.135
92045W        W83969  30.245  27.225  50.129
92046W        W83970  16.225  34.700  52.879
92047W        W83971   4.753  28.220  51.040
92048W        W83972   1.761  30.246  53.337
92049W        W83973  43.711  19.749  50.585
92050W        W83974  21.262   6.278  51.056
92051W        W83975  47.684  20.250  52.902
92052W        W83976  17.749  45.679  52.868
92053W        W83977  19.766  34.699  50.124
92054W        W83978  19.752   3.249  52.431
92055W        W83979   0.755  12.270  51.964
92056W        W83980  35.206  47.191  51.076
92057W        W83981  17.253  46.197  52.421
92058W        W83982  47.695  18.228  53.798
92059W        W83983  42.726  30.728  50.130
92060W        W83984   4.782   3.752  50.588
92061W        W83985  32.245  24.241  52.864
92062W        W83986  48.181  24.259  50.618
92063W        W83987   4.256  41.192  51.977
92064W        W83988  13.759  33.706  53.316
92065W        W83989  30.747  28.248  49.675
92066W        W83990  18.739  15.230  50.595
92067W        W83991  27.750  11.256  51.968
92068W        W83992  23.217  12.244  52.446
92069W        W83993  15.766  31.705  52.875
92070W        W83994  35.709   7.765  52.426
92071W        W83995  21.244   6.247  51.969
92072W        W83996  17.765  29.251  51.972
92073W        W83997   5.258  13.249  49.694
92074W        W83998  10.276  34.717  50.157
92075W        W83999   3.765  35.733  51.972
92076W        W84000   1.291   6.287  50.162
92077W        W84001  11.258  17.235  51.972
92078W        W84002  43.212  31.220  51.970
92079W        W84003  24.754   5.249  50.133
92080W        W84004  46.686  41.700  52.427
92081W        W84005  42.200   1.272  53.811
92082W        W84006  23.752  31.727  51.510
92083W        W84007  18.231  27.210  50.580
92084W        W84008  18.769  46.707  50.138
92085W        W84009  34.241  47.711  52.408
92086W        W84010  38.198  29.722  50.587
92087W        W84011  47.194  31.229  51.044
92088W        W84012  20.240   5.745  52.867
92089W        W84013  23.246  20.247  50.155
92090W        W84014  28.240  36.725  52.880
92091W        W84015  38.197  24.256  49.703
92092W        W84016  43.195  30.736  51.065
92093W        W84017  47.196  21.721  50.131
92094W        W84018  12.758  31.238  52.416
92095W        W84019   6.252  13.744  51.051
92096W        W84020  40.730  16.733  53.786
92097W        W84021  19.730  24.244  50.121
92098W        W84022  10.263  20.239  53.779
92099W        W84023  45.704  35.704  51.517
92100W        W84024  40.223  22.244  52.447
92101W        W84025  10.259  11.258  52.881
92102W        W84026  45.219  16.232  50.140
92103W        W84027   1.769  37.190  50.138
92104W        W84028  31.212  18.255  53.329
92105W        W84029  16.256  15.761  51.079
92106W        W84030   2.296  17.760  49.687
92107W        W84031  15.763   1.797  50.125
92108W        W84032  42.227  47.214  52.426
92109W        W84033  39.195  27.709  53.336
92110W        W84034   8.752  40.705  49.672
92111W        W84035  43.206  45.188  52.869
92112W        W84036  42.688  24.725  49.680
92113W        W84037  37.714  45.182  49.700
92114W        W84038   9.746  43.215  52.438
92115W        W84039  12.771  20.728  51.509
92116W        W84040  17.269  41.211  50.580
92117W        W84041   7.761  21.748  53.810
92118W        W84042  30.700  43.223  51.529
92119W        W84043  13.256  37.235  51.050
92120W        W84044  23.222   7.287  51.077
92121W        W84045  13.739  24.238  52.866
92122W        W84046  41.696  10.740  50.606
92123W        W84047   6.767  31.719  49.690
92124W        W84048  36.240  10.759  50.588
92125W        W84049  35.207  34.734  51.956
92126W        W84050   5.754  22.250  50.158
92127W        W84051   0.257  20.264  52.879
92128W        W84052  18.729   3.754  51.509
92129W        W84053  23.217  44.182  53.779
92130W        W84054   5.763  21.253  51.530
92131W        W84055  32.697   5.286  52.872
92132W        W84056  35.192  22.220  51.527
92133W        W84057  13.243   4.271  51.519
92134W        W84058  34.201  11.233  52.433
92135W        W84059   8.248  18.734  53.786
92136W        W84060  38.219   2.270  50.604
92137W        W84061  47.712  47.701  50.617
92138W        W84062  30.712  46.710  49.670
92139W        W84063   6.271  29.232  49.706
92140W        W84064  47.221  37.692  51.992
92141W        W84065  34.714  29.208  50.614
92142W        W84066  45.678  19.251  51.070
92143W        W84067   3.257  28.212  50.579
92144W        W84068  14.743  29.211  52.432
92145W        W84069  16.749   8.758  51.527
92146W        W84070  33.743  42.699  51.970
92147W        W84071  47.685  32.243  49.705
92148W        W84072  17.264  26.744  51.531
92149W        W84073  28.746  24.233  53.799
92150W        W84074  17.255   2.786  51.521
92151W        W84075  29.743   9.772  52.877
92152W        W84076  25.226  35.195  51.034
92153W        W84077  36.724   2.783  51.986
92154W        W84078  28.241   8.283  51.963
92155W        W84079  47.196   5.256  49.678
92156W        W84080  31.731  42.691  53.795
92157W        W84081  26.219  30.702  53.320
92158W        W84082  38.236   2.266  52.436
92159W        W84083  24.736  25.752  51.521
92160W        W84084  35.739  24.747  53.352
92161W        W84085   1.276  35.233  52.894
92162W        W84086  39.197  12.241  52.431
92163W        W84087  19.732   4.285  50.615
92164W        W84088  46.681  10.757  50.142
92165W        W84089  18.236  43.706  50.125
92166W        W84090  27.229  40.191  51.981
92167W        W84091  20.235  32.741  49.700
92168W        W84092  12.242   3.254  53.777
92169W        W84093  25.213  18.762  51.496
92170W        W84094  27.736  32.733  53.791
92171W        W84095  20.731  41.707  52.414
92172W        W84096  39.731  32.705  51.496
92173W        W84097  22.227  38.692  52.417
92174W        W84098  34.205  42.682  50.586
92175W        W84099  31.221  33.744  50.136
92176W        W84100   0.257   4.785  53.316
92177W        W84101  41.222  23.759  53.773
92178W        W84102  10.758  18.264  51.036
92179W        W84103  47.213  35.719  52.886
92180W        W84104  42.704  23.245  49.694
92181W        W84105   4.285   2.780  51.971
92182W        W84106  41.710  46.215  50.121
92183W        W84107  31.230  25.713  50.586
92184W        W84108  47.219  45.220  53.355
92185W        W84109  38.725  16.733  50.166
92186W        W84110   3.292   6.754  49.675
92187W        W84111  23.724  46.706  52.443
92188W        W84112  22.737  28.240  51.988
92189W        W84113  19.256   0.260  52.900
92190W        W84114  35.238  36.722  50.610
92191W        W84115  28.246  13.277  50.126
92192W        W84116  29.709  30.736  52.894
92193W        W84117  44.721  19.241  50.137
92194W        W84118  46.205  21.236  53.800
92195W        W84119  37.734  18.240  53.807
92196W        W84120  47.715  30.222  51.956
92197W        W84121   8.742  43.698  51.962
92198W        W84122  42.191  12.739  51.079
92199W        W84123  10.745  13.242  50.160
92200W        W84124  33.218  36.230  53.324
92201W        W84125  40.184  20.217  50.607
92202W        W84126  29.733  17.270  50.608
92203W        W84127   3.753   6.768  52.434
92204W        W84128  11.749  12.767  53.817
92205W        W84129  13.261  41.225  51.492
92206W        W84130   2.753  12.279  51.985
92207W        W84131  14.242  45.179  49.703
92208W        W84132   7.755  11.755  53.318
92209W        W84133  44.198  15.228  51.947
92210W        W84134  15.272  12.231  51.963
92211W        W84135  39.213  44.697  52.411
92212W        W84136  17.244  15.756  51.984
92213W        W84137  47.181  25.230  52.444
92214W        W84138  41.717   0.750  53.328
92215W        W84139  43.219  26.256  50.162
92216W        W84140  37.212  20.752  51.069
92217W        W84141  25.723  35.733  52.868
92218W        W84142   4.780  47.718  51.953
92219W        W84143   6.253  31.216  52.904
92220W        W84144  42.197  19.761  50.613
92221W        W84145  39.192   1.268  53.353
92222W        W84146   1.773   7.772  53.788
92223W        W84147  10.774  42.709  53.325
92224W        W84148  47.687   6.249  52.885
92225W        W84149  35.700  24.211  51.518
92226W        W84150  27.709  15.770  50.149
92227W        W84151  43.200  15.742  51.054
92228W        W84152  23.215  19.239  49.677
92229W        W84153  40.716  26.719  50.606
92230W        W84154  30.241  12.735  51.507
92231W        W84155  14.247  31.714  53.359
92232W        W84156  26.712   7.283  51.505
92233W        W84157  24.237  14.754  50.594
92234W        W84158  22.723   0.290  50.597
92235W        W84159  26.725   2.252  52.430
92236W        W84160  30.215  38.714  53.794
92237W        W84161   9.754  19.720  51.975
92238W        W84162  25.246   8.778  52.438
92239W        W84163   3.773  39.222  52.432
92240W        W84164  36.719   5.245  51.070
92241W        W84165  12.747  35.210  50.618
92242W        W84166  34.210  10.735  50.578
92243W        W84167  43.227  45.224  51.948
92244W        W84168  19.722  43.190  51.501
92245W        W84169   6.269  47.712  51.064
92246W        W84170  15.773  10.276  51.052
92247W        W84171   1.281  30.745  49.675
92248W        W84172  12.769  20.723  51.070
92249W        W84173   0.282   2.272  53.329
92250W        W84174  39.190  30.707  51.495
92251W        W84175  14.260  32.732  51.975
92252W        W84176  29.745   9.267  49.684
92253W        W84177  44.213  28.228  50.155
92254W        W84178  45.721  40.210  49.678
92255W        W84179  42.198   5.243  50.615
92256W        W84180  12.236  28.238  51.052
92257W        W84181  23.217  30.219  53.323
92258W        W84182  26.208  17.760  50.136
92259W        W84183  44.700  14.769  50.617
92260W        W84184  38.195  27.720  51.979
92261W        W84185  11.242   8.766  53.818
92262W        W84186  16.742  32.711  51.495
92263W        W84187  33.696  18.260  51.503
92264W        W84188  24.755  47.687  51.501
92265W        W84189  36.709  40.720  50.596
92266W        W84190  31.231  28.728  52.859
92267W        W84191  29.202  20.234  51.495
92268W        W84192   4.750  23.719  52.885
92269W        W84193  20.253  26.247  50.137
92270W        W84194  47.704  34.722  52.885
92271W        W84195  19.234  26.706  51.518
92272W        W84196   1.755  45.196  51.963
92273W        W84197  42.191  43.194  51.957
92274W        W84198   3.789  30.731  51.530
92275W        W84199  18.243   5.762  51.495
92276W        W84200  38.200  28.741  52.890
92277W        W84201  24.245  45.688  50.165
92278W        W84202  47.177   8.772  50.611
92279W        W84203  27.232  27.207  52.439
92280W        W84204  46.186  30.210  49.678
92281W        W84205  25.716  27.233  53.791
92282W        W84206   2.778  26.714  51.490
92283W        W84207  34.715  39.209  53.357
92284W        W84208  28.718  21.737  49.684
92285W        W84209  25.709  33.241  50.616
92286W        W84210   0.767   9.764  51.976
92287W        W84211  44.178  11.763  53.322
92288W        W84212  16.243  44.709  52.904
92289W        W84213   5.778  48.191  50.586
92290W        W84214  23.244  31.223  51.066
92291W        W84215  18.760  34.210  50.617
92292W        W84216  18.223  28.721  51.066
92293W        W84217  35.728   5.749  52.439
92294W        W84218  37.714   7.247  53.351
92295W        W84219  24.755  30.242  52.884
92296W        W84220  27.740  44.215  50.146
92297W        W84221  16.238   1.265  53.318
92298W        W84222  32.745  10.247  50.621
92299W        W84223  17.248   0.791  51.971
92300W        W84224  17.254   9.269  51.059
92301W        W84225  28.736  10.777  53.331
92302W        W84226   5.758   8.245  51.965
92303W        W84227  19.234  29.213  53.796
92304W        W84228  16.234  31.740  53.337
92305W        W84229  29.241  39.730  49.665
92306W        W84230  26.232  10.279  50.592
92307W        W84231  29.749   9.756  51.042
92308W        W84232  36.722  26.249  51.044
92309W        W84233  40.203  24.228  51.985
92310W        W84234  29.704  48.173  52.901
92311W        W84235  19.759  48.185  53.815
92312W        W84236  23.722  37.191  51.078
92313W        W84237   6.255  37.207  51.059
92314W        W84238  10.775  15.264  53.359
92315W        W84239  14.267   9.251  52.448
92316W        W84240  26.230  34.211  50.148
92317W        W84241   4.292  25.727  52.410
92318W        W84242   3.276  29.222  52.868
92319W        W84243  20.242  30.231  53.356
92320W        W84244  24.756   8.272  52.405
92321W        W84245  31.242  44.191  52.892
92322W        W84246  14.751  45.222  52.412
92323W        W84247  26.226   2.265  51.490
92324W        W84248  33.735  38.234  50.590
92325W        W84249  21.717  17.242  49.683
92326W        W84250  37.203  29.741  52.861
92327W        W84251  22.239  13.728  50.606
92328W        W84252  42.680   9.257  50.622
92329W        W84253  34.710   4.292  51.947
92330W        W84254   0.293  45.722  52.864
92331W        W84255  21.227   0.252  49.674
92332W        W84256  24.744  36.712  49.682
92333W        W84257  10.780  24.255  53.791
92334W        W84258  31.248  29.223  51.047
92335W        W84259   4.764  15.228  51.047
92336W        W84260   4.245   0.792  51.047
92337W        W84261   7.784   8.742  51.507
92338W        W84262   0.264  13.244  50.579
92339W        W84263  13.242  40.714  52.878
92340W        W84264  12.737  14.251  51.967
92341W        W84265  43.703  39.195  53.342
92342W        W84266  24.757  13.268  50.143
92343W        W84267  48.219   6.776  52.904
92344W        W84268   1.762  11.270  51.949
92345W        W84269   4.248  20.217  51.521
92346W        W84270   2.790  21.219  52.413
92347W        W84271  18.237  30.701  53.350
92348W        W84272  41.190  25.222  50.151
92349W        W84273  23.247  42.706  51.508
92350W        W84274  37.717  36.696  52.880
92351W        W84275  46.722  16.231  51.964
92352W        W84276  12.232  32.243  52.438
92353W        W84277  24.752   2.271  51.068
92354W        W84278  37.193  38.732  51.510
92355W        W84279  18.769  27.708  50.141
92356W        W84280  29.207  12.730  49.687
92357W        W84281  25.252  35.731  52.445
92358W        W84282   1.790  10.239  51.532
92359W        W84283   4.265   5.749  49.704
92360W        W84284   9.765  31.244  51.035
92361W        W84285  17.258  16.262  50.160
92362W        W84286   9.739  24.754  49.685
92363W        W84287  35.195  27.729  51.061
92364W        W84288  45.695  43.211  50.162
92365W        W84289  38.197  11.778  52.866
92366W        W84290  41.688  35.216  51.500
92367W        W84291   8.260  16.223  50.145
92368W        W84292  12.236  20.765  53.779
92369W        W84293   1.792  18.756  53.790
92370W        W84294   0.269   4.742  49.676
92371W        W84295  39.698  40.214  51.991
92372W        W84296  33.201  34.202  52.406
92373W        W84297  14.235   0.285  49.682
92374W        W84298  15.263  43.210  51.970
92375W        W84299  38.713  33.728  51.072
92376W        W84300  45.189   2.778  50.612
92377W        W84301  31.234   0.782  51.978
92378W        W84302  33.233  37.191  50.598
92379W        W84303   7.768  24.733  50.124
92380W        W84304  11.248  43.199  50.619
92381W        W84305  14.258  27.220  50.143
92382W        W84306   9.773  26.708  52.860
92383W        W84307  35.729   9.283  51.039
92384W        W84308  15.241   8.746  52.892
92385W        W84309  47.211  11.764  53.333
92386W        W84310  20.222  16.272  51.035
92387W        W84311  44.199  36.227  53.322
92388W        W84312  15.266  28.705  52.887
92389W        W84313  14.272   0.796  51.063
92390W        W84314  10.758  38.234  52.440
92391W        W84315  32.230  22.255  49.689
92392W        W84316   2.755  18.749  50.612
92393W        W84317  46.219  29.235  53.361
92394W        W84318  47.676  28.721  51.968
92395W        W84319  35.715  21.260  50.622
92396W        W84320  19.762  42.703  52.416
92397W        W84321  31.698   1.260  53.772
92398W        W84322  41.210  33.698  51.066
92399W        W84323   3.275   5.754  50.579
92400W        W84324  31.725  48.182  50.593
92401W        W84325   2.759  45.220  53.342
92402W        W84326  18.723  14.274  50.609
92403W        W84327  19.722  21.216  51.498
92404W        W84328  22.252  23.249  52.874
92405W        W84329   5.247  10.777  51.533
92406W        W84330  22.242  28.727  51.967
92407W        W84331  15.273  47.203  51.071
92408W        W84332  41.225  36.211  52.416
92409W        W84333  41.689  22.727  51.525
92410W        W84334  27.206  16.268  52.435
92411W        W84335  44.703   1.284  53.794
92412W        W84336  14.240  25.724  49.696
92413W        W84337  33.740  30.742  52.408
92414W        W84338   7.759  44.190  53.334
92415W        W84339  14.241  12.755  49.703
92416W        W84340  45.197  36.219  52.412
92417W        W84341  47.710  34.221  49.702
92418W        W84342  34.718  35.697  53.804
92419W        W84343   5.255  15.236  51.534
92420W        W84344   1.750  37.703  49.677
92421W        W84345   9.252  11.773  50.155
92422W        W84346  41.201  29.712  51.990
92423W        W84347  29.711  47.192  51.533
92424W        W84348  35.203  21.744  52.419
92425W        W84349  21.230  43.689  50.618
92426W        W84350  29.750   3.255  52.897
92427W        W84351  33.714  24.727  51.052
92428W        W84352   6.742  28.231  50.610
92429W        W84353  47.696  47.177  53.331
92430W        W84354  43.223  38.736  53.783
92431W        W84355   1.763  22.217  51.970
92432W        W84356  31.698  22.760  51.036
92433W        W84357   2.793  19.254  51.508
92434W        W84358  23.726  21.238  52.860
92435W        W84359   2.257  20.742  51.988
92436W        W84360  40.684  29.219  51.520
92437W        W84361  26.244  10.279  51.964
92438W        W84362   7.259  28.709  51.042
92439W        W84363   7.246   1.286  53.808
92440W        W84364  20.249  48.190  50.162
92441W        W84365  28.211  32.223  53.783
92442W        W84366  17.268  44.184  50.133
92443W        W84367  20.239  43.183  53.774
92444W        W84368  18.739  28.717  52.438
92445W        W84369   3.251  47.702  52.439
92446W        W84370  36.723  43.680  51.493
92447W        W84371   6.742   4.277  52.896
92448W        W84372  48.194   0.792  51.948
92449W        W84373  27.208  13.268  53.794
92450W        W84374  39.187  24.713  51.064
92451W        W84375  12.272  29.703  51.525
92452W        W84376   9.754  42.694  50.158
92453W        W84377  19.743  47.217  50.621
92454W        W84378  24.245  31.742  51.513
92455W        W84379  47.192  10.734  51.505
92456W        W84380  46.204  23.748  52.881
92457W        W84381  47.686   8.258  52.861
92458W        W84382  37.208  38.693  50.159
92459W        W84383   4.755  47.198  52.896
92460W        W84384  15.725  25.732  50.133
92461W        W84385  21.716  26.212  52.868
92462W        W84386  37.709  36.705  50.159
92463W        W84387  26.731  42.199  51.052
92464W        W84388  22.758  32.712  53.789
92465W        W84389   8.748   5.274  51.981
92466W        W84390  35.728  24.260  49.677
92467W        W84391  14.746   8.267  53.354
92468W        W84392  24.238  30.730  50.153
92469W        W84393  12.767  10.251  50.597
92470W        W84394  44.189  22.730  53.339
92471W        W84395  24.747  42.710  52.428
92472W        W84396  39.721   8.267  50.590
92473W        W84397  43.689   9.246  51.959
92474W        W84398   7.760  43.711  51.964
92475W        W84399   3.268  23.732  53.337
92476W        W84400  33.227  40.719  51.949
92477W        W84401  44.720  35.726  51.057
92478W        W84402  19.263  43.194  50.606
92479W        W84403  17.229   9.251  49.666
92480W        W84404  28.746  18.257  49.672
92481W        W84405  36.206  37.688  52.900
92482W        W84406  43.687   3.785  51.530
92483W        W84407  20.233  45.723  52.433
92484W        W84408  34.228  21.239  53.322
92485W        W84409   4.244  32.700  50.587
92486W        W84410  28.737  17.254  51.491
92487W        W84411  31.218  11.761  49.675
92488W        W84412  31.730  16.741  51.958
92489W        W84413   8.758  19.218  52.408
92490W        W84414  18.732  15.266  53.797
92491W        W84415  18.745  11.263  51.535
92492W        W84416  34.697  16.223  51.968
92493W        W84417  31.216  48.196  50.616
92494W        W84418  44.683  47.696  51.057
92495W        W84419  29.739  34.741  51.050
92496W        W84420  12.251  44.189  52.895
92497W        W84421  20.739   2.774  50.156
92498W        W84422  38.692   9.282  53.336
92499W        W84423  22.722  16.734  49.675
92500W        W84424  13.265  38.218  50.142
92501W        W84425  34.220  34.207  50.597
92502W        W84426  28.230   7.760  53.797
92503W        W84427  43.708  23.240  51.530
92504W        W84428  27.730  17.730  50.602
92505W        W84429  40.705   7.277  52.889
92506W        W84430  43.694  21.264  50.134
92507W        W84431  45.697   8.238  51.533
92508W        W84432  39.727  37.734  52.432
92509W        W84433  40.215   3.746  49.674
92510W        W84434   7.768  31.732  51.502
92511W        W84435  25.751  46.214  52.417
92512W        W84436  13.228  10.261  51.500
92513W        W84437  47.674   9.241  49.691
92514W        W84438  29.715  46.196  53.783
92515W        W84439  27.205  43.198  52.899
92516W        W84440   9.763  15.746  52.889
92517W        W84441  19.247  46.682  53.351
92518W        W84442   4.267  10.773  53.797
92519W        W84443  16.772  14.247  53.319
92520W        W84444   9.773  46.690  53.778
92521W        W84445  14.246  39.696  52.898
92522W        W84446  34.238  30.740  53.360
92523W        W84447  48.171  13.243  51.038
92524W        W84448   3.287  19.728  50.614
92525W        W84449  22.249   0.269  53.321
92526W        W84450  25.218   3.777  53.812
92527W        W84451  31.203  11.266  53.320
92528W        W84452  35.232  33.714  53.796
92529W        W84453  33.216  12.261  52.879
92530W        W84454  41.205  29.712  52.424
92531W        W84455  39.202  23.221  53.337
92532W        W84456   0.797   4.750  51.978
92533W        W84457  48.188  33.740  50.616
92534W        W84458   6.758  15.248  50.585
92535W        W84459  31.717   7.746  50.159
92536W        W84460  22.726  20.231  51.948
92537W        W84461   4.771  14.766  53.357
92538W        W84462  10.235  40.190  50.149
92539W        W84463  16.757  41.722  50.140
92540W        W84464  47.720  32.701  53.790
92541W        W84465  38.236   0.788  50.161
92542W        W84466  23.735  13.238  51.522
92543W        W84467  11.754  11.765  52.436
92544W        W84468  14.745   4.245  51.065
92545W        W84469  13.736  17.765  50.137
92546W        W84470  23.244   1.761  53.815
92547W        W84471  34.700  21.249  53.324
92548W        W84472   1.286  10.274  53.333
92549W        W84473  14.731  20.224  51.070
92550W        W84474  33.219  19.753  49.690
92551W        W84475   8.768  41.722  53.814
92552W        W84476  40.202  29.741  51.514
92553W        W84477  47.186  24.235  51.959
92554W        W84478  18.728  35.722  53.347
92555W        W84479  23.252  15.255  50.580
92556W        W84480   2.792  12.732  52.421
92557W        W84481  24.217   5.247  53.775
92558W        W84482   8.251   5.757  53.817
92559W        W84483  12.738  47.674  51.075
92560W        W84484  29.228  22.229  51.517
92561W        W84485  21.726  22.259  51.058
92562W        W84486  15.741  20.253  52.446
92563W        W84487  40.193  30.710  49.665
92564W        W84488  30.733  25.737  50.578
92565W        W84489  15.247  47.711  52.439
92566W        W84490  18.728   0.772  50.590
92567W        W84491  40.689  14.265  52.418
92568W        W84492  14.265  20.231  50.606
92569W        W84493   9.736  11.241  53.353
92570W        W84494   7.258   5.784  50.142
92571W        W84495   3.793   9.760  53.790
92572W        W84496  20.762  30.243  53.808
92573W        W84497  19.761  13.729  50.582
92574W        W84498   4.281   6.743  51.047
92575W        W84499  21.239  10.765  49.694
92576W        W84500  38.702  27.240  49.668
92577W        W84501  25.217   7.777  53.329
92578W        W84502  13.239   5.781  52.422
92579W        W84503  14.269  40.230  51.048
92580W        W84504  26.228  16.258  51.042
92581W        W84505  22.239   4.758  50.122
92582W        W84506  17.259  27.727  53.338
92583W        W84507  13.278  26.738  51.958
92584W        W84508  22.228  44.695  53.773
92585W        W84509   2.268  34.222  52.420
92586W        W84510  27.752  22.735  53.808
92587W        W84511  39.733  26.254  51.506
92588W        W84512  29.224  20.726  51.049
92589W        W84513  12.232  33.219  52.414
92590W        W84514  28.241  19.266  51.056
92591W        W84515  46.716  40.694  49.673
92592W        W84516  16.754  32.738  50.136
92593W        W84517  36.708   3.246  52.886
92594W        W84518  16.247  48.181  53.817
92595W        W84519   6.782   0.257  50.579
92596W        W84520  43.708  18.762  52.436
92597W        W84521   5.278  37.735  50.145
92598W        W84522  21.740  43.219  50.605
92599W        W84523  29.234   9.758  50.150
92600W        W84524   3.289  34.720  50.135
92601W        W84525   2.778  27.223  51.044
92602W        W84526  32.228   5.763  50.590
92603W        W84527  10.779  42.208  49.704
92604W        W84528  11.265   6.755  51.975
92605W        W84529  14.265  36.718  50.149
92606W        W84530  48.190  16.238  51.066
92607W        W84531   0.272   8.281  52.431
92608W        W84532  16.748   3.787  52.901
92609W        W84533   6.785  32.242  50.129
92610W        W84534  20.748  39.218  50.603
92611W        W84535  36.719  32.239  51.055
92612W        W84536  47.679  23.751  51.949
92613W        W84537  10.263  40.230  51.959
92614W        W84538  42.200   0.775  53.322
92615W        W84539  14.775  30.742  53.336
92616W        W84540  46.686  21.738  53.782
92617W        W84541  29.207   5.263  50.615
92618W        W84542  21.233  38.188  51.983
92619W        W84543  47.221  41.712  51.530
92620W        W84544  21.227  25.238  53.787
92621W        W84545  22.250  35.195  49.707
92622W        W84546  41.692  19.253  52.865
92623W        W84547  16.770  35.200  53.784
92624W        W84548   4.790  11.749  52.429
92625W        W84549  34.719  23.257  51.499
92626W        W84550   0.254  23.719  53.785
92627W        W84551   3.289   7.773  53.332
92628W        W84552  19.254  30.728  53.797
92629W        W84553  34.701  11.238  49.681
92630W        W84554  19.223  19.225  53.798
92631W        W84555  44.686  25.250  51.069
92632W        W84556  14.248  23.224  50.122
92633W        W84557  32.219  42.219  51.951
92634W        W84558  15.736   4.757  50.122
92635W        W84559  38.216   6.241  49.678
92636W        W84560  42.723  10.753  49.671
92637W        W84561   4.752  22.729  52.886
92638W        W84562   1.264  26.208  49.677
92639W        W84563  19.239  10.270  51.521
92640W        W84564  42.226  36.709  53.346
92641W        W84565   1.754  34.240  51.514
92642W        W84566  23.720  25.739  52.432
92643W        W84567   2.273  34.197  51.974
92644W        W84568  45.176  32.734  53.800
92645W        W84569   6.747  32.244  50.604
92646W        W84570  21.229  37.234  50.126
92647W        W84571  39.724  31.734  51.508
92648W        W84572  14.729  26.710  50.122
92649W        W84573   1.782  23.239  50.131
92650W        W84574  28.751  10.270  53.794
92651W        W84575   0.783   2.789  51.064
92652W        W84576  45.697   2.781  52.863
92653W        W84577  40.691  10.281  50.604
92654W        W84578  36.228   3.251  53.778
92655W        W84579  11.761  20.248  51.973
92656W        W84580   8.274   3.765  52.903
92657W        W84581  21.232  27.704  51.971
92658W        W84582  42.194  16.269  51.069
92659W        W84583  44.182  42.214  53.360
92660W        W84584  25.238  21.256  51.981
92661W        W84585   6.744   1.758  51.056
92662W        W84586  39.213  20.265  50.595
92663W        W84587  17.768  18.238  51.978
92664W        W84588  41.704   4.263  51.063
92665W        W84589   7.773  44.223  52.875
92666W        W84590  38.705  13.729  53.347
92667W        W84591  47.205   3.282  51.058
92668W        W84592  12.230  41.191  51.050
92669W        W84593  31.723  27.730  51.067
92670W        W84594  45.693  10.269  51.049
92671W        W84595  41.728  27.228  51.049
92672W        W84596   6.786  19.742  51.984
92673W        W84597   9.764  20.730  51.493
92674W        W84598   0.792  33.718  49.669
92675W        W84599  43.219  26.722  53.327
92676W        W84600  24.724  23.715  50.122
92677W        W84601  39.715   0.749  49.684
92678W        W84602   9.239  42.697  49.677
92679W        W84603  39.710  44.201  52.406
92680W        W84604  28.220  13.728  51.513
92681W        W84605  46.700   1.290  50.137
92682W        W84606  18.246  12.757  51.517
92683W        W84607  47.175   5.787  51.970
92684W        W84608   3.254   6.277  52.872
92685W        W84609  10.253  15.763  51.947
92686W        W84610  40.698   6.742  51.504
92687W        W84611  34.242  33.228  50.121
92688W        W84612  47.705  31.702  51.991
92689W        W84613   4.771   0.255  53.816
92690W        W84614  30.711  19.263  52.406
92691W        W84615  46.698  43.707  52.416
92692W        W84616  46.686  40.727  52.860
92693W        W84617  14.763  15.264  51.991
92694W        W84618  45.179   5.762  51.078
92695W        W84619  32.743   2.782  52.870
92696W        W84620  16.261   8.751  51.976
92697W        W84621  47.177  17.751  51.511
92698W        W84622  13.272  18.260  51.982
92699W        W84623  21.743  38.196  49.689
92700W        W84624   6.261  10.261  50.607
92701W        W84625   1.749  18.731  51.531
92702W        W84626   3.258   3.771  49.708
92703W        W84627  26.217  11.270  50.157
92704W        W84628   0.769  47.217  53.807
92705W        W84629  38.225  11.742  53.337
92706W        W84630  10.749  28.209  51.989
92707W        W84631  30.733  25.250  52.899
92708W        W84632  27.220  46.205  51.968
92709W        W84633  14.245  39.690  53.784
92710W        W84634  40.699  19.764  50.594
92711W        W84635  46.220  10.735  50.132
92712W        W84636   1.793  10.774  50.140
92713W        W84637  44.178  38.716  51.991
92714W        W84638  41.711  35.193  49.678
92715W        W84639  36.211  37.719  50.587
92716W        W84640   7.264  46.694  52.432
92717W        W84641  21.229   9.280  50.622
92718W        W84642  26.738  13.273  51.043
92719W        W84643   8.740  47.720  51.959
92720W        W84644  43.221   4.758  51.970
92721W        W84645  34.200  33.701  51.960
92722W        W84646  24.243  14.754  51.986
92723W        W84647  43.688  36.701  50.584
92724W        W84648  17.260  13.764  50.593
92725W        W84649  35.695   9.245  52.436
92726W        W84650  14.755  46.190  52.416
92727W        W84651  29.239  32.233  52.863
92728W        W84652   0.284   6.269  51.517
92729W        W84653   5.761  23.217  50.608
92730W        W84654  38.692  26.711  49.698
92731W        W84655  47.675  12.732  51.075
92732W        W84656  17.752  32.228  51.970
92733W        W84657  30.710   5.288  51.514
92734W        W84658  26.752  34.741  49.695
92735W        W84659  42.689  33.206  51.964
92736W        W84660  47.194  16.258  52.888
92737W        W84661  27.206  47.179  52.445
92738W        W84662  38.193  22.218  50.126
92739W        W84663  42.208  27.707  52.416
92740W        W84664  43.183  29.203  49.669
92741W        W84665  31.729  30.249  53.791
92742W        W84666  46.209   5.773  51.952
92743W        W84667  10.778  10.740  51.492
92744W        W84668  25.748  26.251  51.991
92745W        W84669  41.712  38.688  52.893
92746W        W84670   7.773  47.202  51.976
92747W        W84671  41.717  30.222  53.321
92748W        W84672  17.751  14.265  52.437
92749W        W84673  26.731   2.272  49.697
92750W        W84674  18.765  16.267  53.787
92751W        W84675  43.699  22.241  52.902
92752W        W84676   9.776  44.226  52.413
92753W        W84677  20.238  33.232  52.436
92754W        W84678  16.735  35.733  51.951
92755W        W84679   4.769  35.204  51.526
92756W        W84680  47.186  37.736  50.614
92757W        W84681  23.757  27.229  50.150
92758W        W84682   5.771  35.226  52.892
92759W        W84683   4.248  13.266  52.862
92760W        W84684   7.775   3.769  49.671
92761W        W84685  23.750   6.289  49.705
92762W        W84686  28.235   5.285  50.147
92763W        W84687  38.709  29.250  50.611
92764W        W84688   8.244  34.240  51.038
92765W        W84689   8.774  40.221  51.534
92766W        W84690  27.233  46.720  50.578
92767W        W84691  23.753  25.224  51.988
92768W        W84692  36.690  39.734  51.979
92769W        W84693  21.741   3.264  51.035
92770W        W84694   0.264  23.243  53.803
92771W        W84695  14.766  34.239  50.612
92772W        W84696  19.729  14.249  50.165
92773W        W84697  11.247  16.239  53.806
92774W        W84698  31.735  39.232  52.427
92775W        W84699  15.236  19.762  51.072
92776W        W84700  31.728  42.691  53.355
92777W        W84701  23.760  44.707  53.359
92778W        W84702   1.260  44.681  49.686
92779W        W84703  10.256  18.731  50.164
92780W        W84704  20.230  42.707  53.334
92781W        W84705  47.681   8.780  50.158
92782W        W84706   4.258  24.229  53.799
92783W        W84707   3.780  45.178  51.074
92784W        W84708  16.737  37.237  52.409
92785W        W84709  25.751  47.175  49.690
92786W        W84710  10.776  11.779  50.609
92787W        W84711  42.189  35.232  51.977
92788W        W84712  12.234  13.235  52.885
92789W        W84713  36.711  48.210  51.954
92790W        W84714  48.210  11.266  53.815
92791W        W84715  24.240  46.712  52.427
92792W        W84716   1.749  28.713  52.410
92793W        W84717  13.738  35.215  51.045
92794W        W84718  34.213  47.691  53.805
92795W        W84719   6.266  29.708  51.063
92796W        W84720  39.219  31.719  50.133
92797W        W84721  29.715  33.214  52.416
92798W        W84722  33.739  31.724  52.897
92799W        W84723  43.683  20.243  53.807
92800W        W84724  31.721  22.722  50.156
92801W        W84725  22.220  25.756  52.893
92802W        W84726  22.237   7.258  51.502
92803W        W84727  13.253  27.207  52.862
92804W        W84728  34.716  23.227  52.421
92805W        W84729  44.195  41.689  53.807
92806W        W84730  22.221  44.692  53.333
92807W        W84731   1.783  15.747  51.039
92808W        W84732  22.231  28.738  50.137
92809W        W84733   9.737  40.187  50.589
92810W        W84734  21.237  37.723  51.061
92811W        W84735  25.255  15.744  53.790
92812W        W84736  15.264  43.216  53.796
92813W        W84737  34.199  42.215  52.447
92814W        W84738  33.723  34.200  53.341
92815W        W84739   4.749  25.727  51.957
92816W        W84740  22.757   4.775  51.507
92817W        W84741  12.243   1.277  50.155
92818W        W84742  11.265  39.689  49.691
92819W        W84743  25.710  35.705  51.991
92820W        W84744  12.737  19.255  52.892
92821W        W84745   4.749  25.726  51.070
92822W        W84746  10.737  35.232  49.680
92823W        W84747   4.757   3.769  51.498
92824W        W84748   5.758  34.694  52.436
92825W        W84749  37.732   7.781  51.074
92826W        W84750  38.214   0.775  52.892
92827W        W84751  15.266  11.242  50.122
92828W        W84752  42.204  24.713  50.126
92829W        W84753  19.221  35.736  51.522
92830W        W84754  42.706  23.231  53.801
92831W        W84755  27.727  15.265  50.144
92832W        W84756  45.687  23.713  51.968
92833W        W84757   7.250  29.234  53.804
92834W        W84758  24.728  36.234  50.609
92835W        W84759  15.768  24.719  52.881
92836W        W84760   7.259  13.736  49.680
92837W        W84761  43.679  16.768  53.810
92838W        W84762  12.738  44.223  50.137
92839W        W84763  42.701  20.748  53.775
92840W        W84764  40.201  13.246  52.407
92841W        W84765  29.717  24.751  49.695
92842W        W84766  39.718   3.253  49.695
92843W        W84767  14.732  30.201  53.782
92844W        W84768   6.261  19.261  52.407
92845W        W84769  41.698   0.760  51.966
92846W        W84770  45.220  44.702  52.883
92847W        W84771  25.723  46.676  51.049
92848W        W84772  15.747  31.229  50.140
92849W        W84773   7.739  24.250  51.047
92850W        W84774   6.746  45.180  53.335
92851W        W84775  22.219  31.730  51.531
92852W        W84776  15.754   5.760  50.613
92853W        W84777  29.233  38.190  53.343
92854W        W84778  45.198  23.719  51.077
92855W        W84779  17.248   4.249  51.034
92856W        W84780  19.747   4.289  52.901
92857W        W84781   8.741  38.221  53.803
92858W        W84782   2.294  20.722  50.165
92859W        W84783  27.717  10.269  49.692
92860W        W84784   0.796  38.726  52.884
92861W        W84785  26.216   5.283  52.432
92862W        W84786  14.228  26.724  51.512
92863W        W84787  29.718  36.205  53.810
92864W        W84788  46.197  30.706  53.791
92865W        W84789   0.786  40.690  51.040
92866W        W84790   5.789  38.692  51.523
92867W        W84791  43.699  21.754  52.434
92868W        W84792  37.737  12.741  51.516
92869W        W84793  17.243  46.709  53.793
92870W        W84794  30.716   9.259  50.139
92871W        W84795  16.233  10.779  52.896
92872W        W84796  27.232  22.217  51.516
92873W        W84797  36.236   2.255  53.815
92874W        W84798  27.711  16.737  51.517
92875W        W84799  16.746  22.718  51.948
92876W        W84800  19.224  41.723  52.418
92877W        W84801   4.256  20.256  51.956
92878W        W84802  29.213  33.211  51.970
92879W        W84803  26.244  29.216  50.158
92880W        W84804  17.728  47.182  52.904
92881W        W84805  48.195  19.751  51.505
92882W        W84806  36.206  39.709  50.132
92883W        W84807  40.690  18.732  51.956
92884W        W84808  29.748   2.777  52.419
92885W        W84809  13.229   0.257  51.034
92886W        W84810   7.265  23.752  52.413
92887W        W84811  39.716   5.759  51.982
92888W        W84812  29.734  12.277  49.681
92889W        W84813   9.753  30.706  53.774
92890W        W84814  44.221  46.707  52.872
92891W        W84815  16.255   3.788  49.701
92892W        W84816  43.217  24.255  51.060
92893W        W84817  29.702   5.268  52.439
92894W        W84818  21.258  21.733  53.316
92895W        W84819  18.757  40.725  52.882
92896W        W84820  30.735   5.780  52.872
92897W        W84821  25.210  37.200  51.958
92898W        W84822  29.219  20.750  53.331
92899W        W84823  43.202  15.245  52.891
92900W        W84824  16.231  45.706  53.341
92901W        W84825  31.724  46.693  49.672
92902W        W84826  20.219  22.225  53.804
92903W        W84827  46.217  17.751  51.492
92904W        W84828   7.779  30.722  51.985
92905W        W84829  11.233  15.765  51.990
92906W        W84830  32.213  19.242  53.324
92907W        W84831  37.735  43.184  50.138
92908W        W84832  14.273  11.280  52.864
92909W        W84833  41.710  37.727  52.419
92910W        W84834  28.217  23.250  53.341
92911W        W84835  35.723  15.263  51.045
92912W        W84836  28.244  21.261  52.443
92913W        W84837  11.233  27.255  52.876
92914W        W84838  12.280  19.236  51.062
92915W        W84839  25.227  45.701  51.073
92916W        W84840  44.700  21.238  51.048
92917W        W84841  16.741  37.706  51.533
92918W        W84842  17.237  10.234  51.534
92919W        W84843  16.237  19.764  53.802
92920W        W84844  46.696   3.766  52.888
92921W        W84845   2.274   4.760  49.670
92922W        W84846   5.765   8.261  51.037
92923W        W84847  38.687   9.777  52.419
92924W        W84848  29.729   7.743  53.780
92925W        W84849   0.276  44.198  50.132
92926W        W84850  22.719  42.221  53.322
92927W        W84851  44.701   8.237  51.061
92928W        W84852  25.745  40.710  52.404
92929W        W84853   2.780   8.243  53.319
92930W        W84854  47.206  21.727  51.531
92931W        W84855   8.772   5.786  49.696
92932W        W84856   4.254  18.225  50.596
92933W        W84857  17.226  45.208  53.812
92934W        W84858  41.199   5.255  51.070
92935W        W84859  28.233  34.703  53.774
92936W        W84860  43.217  40.687  51.055
92937W        W84861  46.713  43.710  52.864
92938W        W84862  44.223  23.744  49.697
92939W        W84863   6.779  36.220  51.978
92940W        W84864  22.762  23.743  52.408
92941W        W84865  26.238  12.729  52.413
92942W        W84866  16.735  13.739  49.693
92943W        W84867  46.204   2.786  51.986
92944W        W84868  46.213  11.762  50.588
92945W        W84869  16.266  22.720  50.142
92946W        W84870   1.764  45.688  50.599
92947W        W84871  47.195  23.755  53.357
92948W        W84872   6.246  11.269  52.869
92949W        W84873   5.780  29.246  49.693
92950W        W84874  16.756  47.192  53.343
92951W        W84875  41.725  17.235  49.682
92952W        W84876  26.731   7.764  51.040
92953W        W84877  43.189   5.280  53.800
92954W        W84878  41.198  42.188  53.355
92955W        W84879  31.204  22.215  50.616
92956W        W84880  18.265  39.703  51.965
92957W        W84881  37.717  28.724  50.582
92958W        W84882  24.755  23.226  51.043
92959W        W84883  36.706  15.271  51.972
92960W        W84884  29.720  26.728  51.530
92961W        W84885  29.739  22.217  51.059
92962W        W84886  17.253  35.713  53.781
92963W        W84887  16.272   3.757  50.601
92964W        W84888  41.730   3.274  51.957
92965W        W84889   7.747   4.785  50.128
92966W        W84890  21.732  15.239  50.579
92967W        W84891  32.231  27.206  50.150
92968W        W84892  46.207  21.251  49.689
92969W        W84893  38.736  41.719  50.149
92970W        W84894  31.741  18.744  51.533
92971W        W84895  41.685  21.734  50.136
92972W        W84896  13.758  41.198  51.503
92973W        W84897  36.736   6.775  52.434
92974W        W84898  40.725  12.247  51.986
92975W        W84899  39.229  15.273  52.436
92976W        W84900  15.258  13.239  51.043
92977W        W84901   4.277   2.762  53.773
92978W        W84902  32.734   9.773  51.522
92979W        W84903  45.711  42.722  51.533
92980W        W84904  32.231  33.743  50.596
92981W        W84905  43.692  11.254  51.490
92982W        W84906  48.209  17.728  51.497
92983W        W84907  48.215   2.295  49.691
92984W        W84908  15.263  17.733  51.964
92985W        W84909  42.198  20.730  53.798
92986W        W84910  26.709  18.249  52.885
92987W        W84911   8.778  43.703  49.676
92988W        W84912  39.195  27.712  51.962
92989W        W84913  38.192  19.723  50.613
92990W        W84914  45.196  28.740  51.522
92991W        W84915  25.255  18.220  52.868
92992W        W84916   6.750  16.744  52.889
92993W        W84917  34.695  23.732  51.986
92994W        W84918  40.215  12.260  53.348
92995W        W84919  14.755  47.718  53.796
92996W        W84920  30.700   7.284  51.045
92997W        W84921  12.245  25.246  49.703
92998W        W84922  10.752  36.230  49.681
92999W        W84923  20.219  19.759  53.786
93000W        W84924   4.269  16.766  51.066
93001W        W84925   5.753  35.194  50.148
93002W        W84926  33.235  30.743  53.776
93003W        W84927   9.771  25.745  51.035
93004W        W84928  18.270   7.284  52.410
93005W        W84929  10.268  14.229  52.891
93006W        W84930  17.734  47.688  53.360
93007W        W84931  38.688  18.237  50.143
93008W        W84932  44.183   5.754  49.684
93009W        W84933  22.724   0.791  53.784
93010W        W84934  24.741  33.220  53.351
93011W        W84935   5.767  13.244  51.974
93012W        W84936   8.248   3.277  51.053
93013W        W84937   0.270  28.246  53.773
93014W        W84938   7.754  44.722  50.621
93015W        W84939  12.751   7.756  52.874
93016W        W84940  13.760  12.748  53.332
93017W        W84941  14.245  14.769  51.953
93018W        W84942  46.688  25.246  50.140
93019W        W84943  12.235  14.273  53.811
93020W        W84944   0.255  43.198  53.800
93021W        W84945  12.256  43.222  52.415
93022W        W84946  37.212  10.251  50.124
93023W        W84947  37.690  13.755  51.043
93024W        W84948  10.734   7.276  51.035
93025W        W84949  37.202  41.723  51.991
93026W        W84950   7.239  44.209  50.161
93027W        W84951  24.257  46.194  50.134
93028W        W84952  40.684  32.741  49.691
93029W        W84953  27.709  31.707  50.614
93030W        W84954  46.712  36.696  51.986
93031W        W84955  33.735  28.745  50.145
93032W        W84956  43.194  44.712  50.129
93033W        W84957   8.286  44.202  53.343
93034W        W84958  37.202   1.773  50.610
93035W        W84959  33.714   2.746  52.438
93036W        W84960  45.714  22.743  52.429
93037W        W84961  33.197  20.263  51.528
93038W        W84962  48.187  45.184  49.685
93039W        W84963  21.241   2.282  49.696
93040W        W84964  45.685  28.720  52.431
93041W        W84965  11.763   7.264  53.329
93042W        W84966  10.277   3.792  51.970
93043W        W84967  26.246  40.686  53.316
93044W        W84968  45.188   6.769  52.866
93045W        W84969  16.245  39.226  52.879
93046W        W84970   3.782   8.257  53.325
93047W        W84971  26.718   2.756  51.052
93048W        W84972  38.223  14.249  50.128
93049W        W84973  11.254  13.255  50.617
93050W        W84974  18.757  22.216  50.157
93051W        W84975  32.702   6.755  52.880
93052W        W84976  36.691  31.746  51.985
93053W        W84977  17.236  38.231  49.675
93054W        W84978  31.217   3.290  53.323
93055W        W84979  46.721  16.758  53.331
93056W        W84980  32.240  21.255  53.785
93057W        W84981   9.284   8.757  49.680
93058W        W84982  42.196  34.207  52.901
93059W        W84983  45.196   7.768  53.334
93060W        W84984  35.736   1.281  51.532
93061W        W84985  45.195  19.747  52.869
93062W        W84986  14.754  33.213  52.406
93063W        W84987  17.730  40.194  53.328
93064W        W84988   7.253  42.220  51.986
93065W        W84989  36.196  11.257  50.127
93066W        W84990  13.742   1.764  50.146
93067W        W84991  24.739  22.737  51.505
93068W        W84992  40.215  33.701  52.422
93069W        W84993  19.227  14.735  50.614
93070W        W84994  15.759  32.702  53.353
93071W        W84995   9.773  20.246  52.426
93072W        W84996  44.186  23.723  52.444
93073W        W84997  21.220  26.213  49.674
93074W        W84998   0.759  42.208  50.140
93075W        W84999  26.251  17.755  51.041
93076W        W85000  31.205  23.745  50.144
93077W        W85001   6.275   3.258  51.053
93078W        W85002  23.718  36.703  49.684
93079W        W85003  42.200  14.266  50.578
93080W        W85004  17.745  14.760  53.790
93081W        W85005  13.744  25.238  52.419
93082W        W85006   1.765  12.749  51.063
93083W        W85007  40.727  37.207  50.584
93084W        W85008  43.728   5.247  50.589
93085W        W85009   4.759  34.233  53.777
93086W        W85010  38.704  30.208  52.889
93087W        W85011  10.737  41.199  53.342
93088W        W85012  28.748  15.736  51.036
93089W        W85013  15.745  40.688  51.510
93090W        W85014  46.221   3.284  50.158
93091W        W85015  35.709  29.223  49.709
93092W        W85016   6.245  21.256  51.057
93093W        W85017  37.221  24.758  50.146
93094W        W85018  16.250  40.207  52.895
93095W        W85019   9.238  45.200  50.590
93096W        W85020  45.678  25.251  52.872
93097W        W85021  34.233   1.258  51.038
93098W        W85022  26.739  32.216  52.410
93099W        W85023  45.180  41.223  51.062
93100W        W85024  14.753  43.691  53.337
93101W        W85025   8.744  22.741  52.872
93102W        W85026   9.241   4.790  53.777
93103W        W85027  37.713  43.214  52.413
93104W        W85028   1.753  16.725  50.134
93105W        W85029  28.214  35.703  51.952
93106W        W85030  45.204   6.770  52.440
93107W        W85031  47.702  19.744  52.870
93108W        W85032  19.237   5.775  50.150
93109W        W85033  26.210  46.196  51.954
93110W        W85034  16.739  38.197  51.965
93111W        W85035  26.708  48.209  52.432
93112W        W85036  48.214  45.709  49.674
93113W        W85037  23.224  45.682  50.140
93114W        W85038  39.193   7.239  51.495
93115W        W85039  25.238  14.730  52.870
93116W        W85040  46.206   7.239  52.448
93117W        W85041  13.246  20.722  50.148
93118W        W85042  31.708  43.684  51.961
93119W        W85043  23.213  18.247  52.430
93120W        W85044   0.251   0.786  50.589
93121W        W85045  15.237  31.210  50.599
93122W        W85046  11.762  43.711  51.963
93123W        W85047  10.244   0.272  53.347
93124W        W85048  30.202   4.788  50.147
93125W        W85049  13.776   0.287  50.143
93126W        W85050  42.210  22.241  51.061
93127W        W85051   5.759  44.186  49.689
93128W        W85052  10.238  25.252  50.165
93129W        W85053  30.746   4.252  51.952
93130W        W85054  14.735  20.243  50.608
93131W        W85055  36.722  12.769  51.506
93132W        W85056   2.756  43.704  50.618
93133W        W85057  42.226   9.781  51.039
93134W        W85058  36.726   4.261  50.148
93135W        W85059  13.230   4.272  52.434
93136W        W85060   8.776  21.244  51.493
93137W        W85061  29.214   3.245  53.337
93138W        W85062   7.758  21.250  50.616
93139W        W85063  12.763  12.762  50.144
93140W        W85064  13.253  36.713  52.407
93141W        W85065  25.743  29.246  51.044
93142W        W85066  21.731  32.742  51.988
93143W        W85067  13.769  37.200  51.494
93144W        W85068  46.697  46.183  49.677
93145W        W85069  44.210  33.733  51.498
93146W        W85070  25.212  36.192  51.946
93147W        W85071   3.757  10.737  51.961
93148W        W85072  48.175  24.235  52.417
93149W        W85073  35.215   1.259  51.527
93150W        W85074  43.691  45.707  51.053
93151W        W85075   7.756  40.701  52.411
93152W        W85076  37.696  13.256  50.129
93153W        W85077   7.765  12.240  52.417
93154W        W85078  22.224  27.230  53.782
93155W        W85079   3.269  46.202  50.156
93156W        W85080  42.229  39.710  52.873
93157W        W85081  48.182   2.275  52.895
93158W        W85082  21.732   3.763  52.410
93159W        W85083  27.721   0.270  50.153
93160W        W85084  18.747  45.721  53.799
93161W        W85085  47.199  23.228  51.962
93162W        W85086  35.232  11.256  51.969
93163W        W85087  48.188   8.737  52.421
93164W        W85088   1.770   8.766  52.897
93165W        W85089  28.206  43.203  49.698
93166W        W85090  48.202  11.763  51.956
93167W        W85091  25.753  37.206  51.497
93168W        W85092  30.209   4.759  52.447
93169W        W85093  10.748   8.259  53.799
93170W        W85094  47.684   3.287  53.317
93171W        W85095  27.716   4.766  53.349
93172W        W85096   3.290  26.737  53.357
93173W        W85097  22.254   9.772  53.325
93174W        W85098  42.724  33.712  50.583
93175W        W85099  15.268  39.700  51.046
93176W        W85100  41.187  41.207  49.698
93177W        W85101  36.220  17.228  51.508
93178W        W85102  25.234  48.183  51.962
93179W        W85103  42.212  27.232  52.403
93180W        W85104  23.724   7.755  52.897
93181W        W85105  14.247   3.265  49.669
93182W        W85106  23.721  33.706  53.355
93183W        W85107  31.200  15.753  52.404
93184W        W85108  27.723  37.217  51.972
93185W        W85109  33.726   3.251  53.786
93186W        W85110  13.739  26.239  52.429
93187W        W85111   4.752   3.774  52.427
93188W        W85112  27.706  28.709  49.706
93189W        W85113  20.731  40.711  52.447
93190W        W85114   7.257  39.222  51.037
93191W        W85115  26.208  12.240  50.123
93192W        W85116  25.228   7.756  52.438
93193W        W85117  42.696  33.711  51.493
93194W        W85118  37.223  13.255  50.600
93195W        W85119  18.250  46.181  51.512
93196W        W85120  26.719  41.716  49.677
93197W        W85121  14.267  10.263  52.407
93198W        W85122  45.685  18.255  52.419
93199W        W85123  34.196  41.703  49.682
93200W        W85124  19.222  41.724  53.354
93201W        W85125   5.768   8.247  52.878
93202W        W85126  40.231   7.743  53.320
93203W        W85127  11.249  23.757  52.405
93204W        W85128   5.749  45.710  52.438
93205W        W85129  31.219  35.215  52.877
93206W        W85130   7.256  26.229  52.403
93207W        W85131  44.723  22.745  52.412
93208W        W85132  17.734  29.729  50.123
93209W        W85133  37.211  41.192  49.699
93210W        W85134  18.262  15.727  53.780
93211W        W85135  31.709  19.745  51.048
93212W        W85136  38.196  43.212  52.891
93213W        W85137  31.200  21.742  52.877
93214W        W85138  38.734   5.285  51.038
93215W        W85139  26.218  47.196  52.437
93216W        W85140  19.228   1.274  53.780
93217W        W85141  29.733   4.745  51.977
93218W        W85142  11.266  26.724  52.878
93219W        W85143  37.200  33.234  50.604
93220W        W85144   8.766  10.239  52.895
93221W        W85145   3.286  47.678  49.677
93222W        W85146  15.260   6.764  50.615
93223W        W85147  19.748   8.737  51.070
93224W        W85148   7.751  47.709  51.992
93225W        W85149  11.755  31.211  51.042
93226W        W85150  31.201  21.231  50.148
93227W        W85151  15.235  25.741  53.806
93228W        W85152  25.243  21.227  53.326
93229W        W85153   0.758  38.188  53.774
93230W        W85154  29.702  45.224  51.075
93231W        W85155   0.262   3.773  53.774
93232W        W85156  20.263   4.245  52.860
93233W        W85157  26.740  16.771  53.791
93234W        W85158  41.705  45.712  51.049
93235W        W85159  30.209  46.191  51.981
93236W        W85160  30.222  32.210  51.500
93237W        W85161  29.734  28.249  51.532
93238W        W85162  47.215  37.191  50.128
93239W        W85163   7.744  34.199  50.601
93240W        W85164  47.681  46.708  51.530
93241W        W85165  19.238  11.769  50.127
93242W        W85166  27.753   4.261  50.599
93243W        W85167   2.293  21.225  52.440
93244W        W85168  11.738   0.253  51.495
93245W        W85169  32.737  14.755  50.143
93246W        W85170  11.757  29.214  51.078
93247W        W85171  39.694   6.251  49.694
93248W        W85172   3.270  40.218  50.620
93249W        W85173   1.249  47.220  52.859
93250W        W85174  38.733  17.767  52.871
93251W        W85175   0.762   8.249  51.504
93252W        W85176  26.720  28.228  51.078
93253W        W85177   8.273  18.255  52.884
93254W        W85178  40.222  43.695  52.437
93255W        W85179  28.748  20.743  51.948
93256W        W85180   3.285   2.263  53.353
93257W        W85181  41.718  10.276  51.968
93258W        W85182   1.289  46.177  50.579
93259W        W85183  23.751  22.736  53.334
93260W        W85184  32.739   8.760  50.131
93261W        W85185  33.196  35.699  51.496
93262W        W85186   8.767  38.714  50.595
93263W        W85187  46.697  32.227  52.428
93264W        W85188  12.268  20.724  51.957
93265W        W85189   3.793  26.752  50.127
93266W        W85190  25.251  28.732  52.889
93267W        W85191  14.234   5.751  53.338
93268W        W85192  15.249  16.735  52.448
93269W        W85193  13.263  35.239  51.535
93270W        W85194  41.232  41.691  51.065
93271W        W85195  28.211   8.282  50.603
93272W        W85196  24.732   8.254  51.966
93273W        W85197  12.762   7.275  53.817
93274W        W85198   8.241  29.731  52.417
93275W        W85199  16.769  33.737  49.705
93276W        W85200  47.695  27.218  53.772
93277W        W85201   6.768  46.196  53.773
93278W        W85202  21.725  38.708  50.579
93279W        W85203  38.690   1.283  51.954
93280W        W85204  42.201  45.197  51.952
93281W        W85205   5.268   8.743  52.446
93282W        W85206  17.724  25.213  51.045
93283W        W85207  31.729  32.198  50.150
93284W        W85208  25.753  25.735  49.679
93285W        W85209   6.255  14.758  51.495
93286W        W85210  42.727  36.713  53.796
93287W        W85211  34.716  45.720  53.780
93288W        W85212  29.720  42.724  52.409
93289W        W85213  47.676  17.228  50.589
93290W        W85214   9.784   4.745  52.899
93291W        W85215  37.692  48.190  51.053
93292W        W85216   9.744  27.214  53.322
93293W        W85217  27.751   5.266  53.799
93294W        W85218   6.254  36.692  51.953
93295W        W85219  41.698  25.733  53.814
93296W        W85220  21.222  12.773  49.692
93297W        W85221  15.726  18.738  52.862
93298W        W85222  44.206  45.190  51.060
93299W        W85223  25.209   4.743  50.586
93300W        W85224  28.224  48.190  51.949
93301W        W85225   5.263  48.176  52.898
93302W        W85226  35.236  24.713  51.518
93303W        W85227   6.266  16.258  53.344
93304W        W85228  30.225  29.742  53.779
93305W        W85229  10.743   6.778  51.079
93306W        W85230  28.237  15.226  51.055
93307W        W85231  46.209  12.243  51.503
93308W        W85232  44.679  14.726  52.412
93309W        W85233  33.734  20.729  51.960
93310W        W85234  45.220  40.706  51.971
93311W        W85235  20.726   4.273  52.431
93312W        W85236  36.234  36.713  51.518
93313W        W85237   5.765  27.232  53.340
93314W        W85238  36.723  35.235  50.154
93315W        W85239   3.746  38.710  51.049
93316W        W85240  36.227  30.216  49.697
93317W        W85241  36.723  43.206  50.618
93318W        W85242   3.790   8.746  50.589
93319W        W85243  47.200  29.705  49.688
93320W        W85244   2.758  31.200  52.430
93321W        W85245  33.198  46.693  53.772
93322W        W85246  17.739  11.270  51.962
93323W        W85247  36.730   7.249  52.868
93324W        W85248   2.276   0.287  53.346
93325W        W85249  41.695  22.238  50.140
93326W        W85250  25.233  32.743  51.947
93327W        W85251  35.221  29.749  53.346
93328W        W85252  46.694  19.267  51.535
93329W        W85253  12.265   5.275  50.129
93330W        W85254  10.770   8.244  50.579
93331W        W85255  10.739  32.214  53.790
93332W        W85256  30.229  40.687  52.409
93333W        W85257   1.290  27.717  50.607
93334W        W85258   3.773  41.213  52.875
93335W        W85259  29.705   8.745  49.670
93336W        W85260  35.733  30.238  51.051
93337W        W85261  34.715   7.272  53.809
93338W        W85262  40.196  12.261  49.688
93339W        W85263  42.199  48.208  51.982
93340W        W85264  26.238   3.273  51.038
93341W        W85265  38.702  19.758  51.054
93342W        W85266  36.219  25.219  53.811
93343W        W85267  39.219  30.713  52.872
93344W        W85268  37.208  29.230  51.524
93345W        W85269   9.747  37.717  50.615
93346W        W85270  39.235   2.274  50.621
93347W        W85271  32.245  44.718  49.688
93348W        W85272  48.203  35.234  50.150
93349W        W85273  33.212  18.237  51.971
93350W        W85274  36.691  38.704  52.870
93351W        W85275  42.705  14.250  51.962
93352W        W85276  42.191  17.259  49.684
93353W        W85277  44.184  30.740  53.339
93354W        W85278  20.244   8.741  50.605
93355W        W85279  36.201  25.713  52.404
93356W        W85280  40.185  22.248  51.949
93357W        W85281  39.212   4.275  51.055
93358W        W85282  33.205  26.724  50.580
93359W        W85283  26.737  27.243  52.904
93360W        W85284  45.696  30.227  51.074
93361W        W85285   7.264  36.194  50.594
93362W        W85286  11.765  14.275  51.975
93363W        W85287  38.687  44.190  52.425
93364W        W85288  16.738  36.714  52.403
93365W        W85289  46.196   8.746  50.615
93366W        W85290  30.205  23.721  49.690
93367W        W85291  39.713  33.742  52.432
93368W        W85292  44.199  39.223  51.534
93369W        W85293  14.252  43.182  50.604
93370W        W85294  40.695  12.238  50.137
93371W        W85295   2.261  24.728  50.158
93372W        W85296  41.184  38.688  51.038
93373W        W85297  48.212  38.693  49.669
93374W        W85298  20.258  43.682  51.506
93375W        W85299  47.696  15.249  49.697
93376W        W85300  10.278  22.742  51.034
93377W        W85301   7.263  29.220  51.507
93378W        W85302   9.261   0.297  52.409
93379W        W85303  18.738  44.680  52.887
93380W        W85304  16.256  11.741  51.531
93381W        W85305  10.756  16.766  53.352
93382W        W85306   6.272  43.723  49.706
93383W        W85307  40.698   1.266  50.129
93384W        W85308   2.255  14.239  50.126
93385W        W85309  24.750  38.210  51.959
93386W        W85310  26.735   3.278  52.404
93387W        W85311   0.792  44.215  53.772
93388W        W85312  37.223  22.719  53.790
93389W        W85313  10.746  41.709  53.813
93390W        W85314  20.730  23.213  50.607
93391W        W85315  26.242   7.775  49.699
93392W        W85316  16.248  31.225  53.325
93393W        W85317  36.206   3.270  52.431
93394W        W85318  26.715  39.719  53.354
93395W        W85319   2.749  27.246  51.974
93396W        W85320  21.261   3.291  52.423
93397W        W85321  24.231  13.774  51.984
93398W        W85322   1.271  13.233  53.803
93399W        W85323   9.744  11.766  50.617
93400W        W85324   1.252  20.240  50.591
93401W        W85325  20.260  36.725  50.158
93402W        W85326  15.247  38.235  51.528
93403W        W85327   5.256  16.744  51.978
93404W        W85328  19.222  17.740  52.414
93405W        W85329  43.181  40.185  49.697
93406W        W85330  26.233  35.233  51.954
93407W        W85331  15.230   4.764  50.161
93408W        W85332  42.698  19.754  50.146
93409W        W85333  35.205  44.717  51.497
93410W        W85334  23.731   6.274  51.502
93411W        W85335  12.739  25.233  52.440
93412W        W85336  21.262  18.763  51.988
93413W        W85337  42.710  29.726  50.605
93414W        W85338  43.189  30.215  53.358
93415W        W85339  16.734   9.250  53.323
93416W        W85340  33.731  45.220  51.978
93417W        W85341  21.738  16.768  50.121
93418W        W85342  18.258  45.196  51.953
93419W        W85343  28.243  28.707  53.347
93420W        W85344  17.733  27.248  50.129
93421W        W85345  20.225   0.288  50.608
93422W        W85346  35.719   1.774  52.419
93423W        W85347  33.201  45.219  52.441
93424W        W85348  33.228  26.254  51.054
93425W        W85349  10.769  25.744  51.981
93426W        W85350  24.723  35.693  52.877
93427W        W85351  22.715  33.720  51.535
93428W        W85352  18.722  46.179  53.809
93429W        W85353   2.264  22.714  51.064
93430W        W85354  22.720   8.248  51.045
93431W        W85355  32.223   6.265  51.046
93432W        W85356  14.245  43.184  49.684
93433W        W85357  42.217  44.688  52.444
93434W        W85358   4.246  11.744  51.517
93435W        W85359  26.743   4.262  52.433
93436W        W85360  46.203  18.230  53.794
93437W        W85361   3.267  26.739  53.795
93438W        W85362   5.289  23.256  49.668
93439W        W85363  19.230  22.254  53.773
93440W        W85364  45.696  38.201  49.666
93441W        W85365  23.236   5.746  51.984
93442W        W85366  45.194  16.244  52.875
93443W        W85367  40.697  21.736  51.043
93444W        W85368   0.779  30.228  53.775
93445W        W85369  20.752  11.240  51.063
93446W        W85370  38.694  26.725  53.813
93447W        W85371   1.271  40.710  50.130
93448W        W85372  45.218  15.737  49.684
93449W        W85373   9.746  43.206  50.608
93450W        W85374  13.750  32.728  51.961
93451W        W85375  25.717  19.225  51.492
93452W        W85376   5.759  38.716  52.879
93453W        W85377  38.189  13.762  50.154
93454W        W85378  30.209  28.241  50.588
93455W        W85379  29.701  45.679  51.037
93456W        W85380  15.756  44.703  51.079
93457W        W85381  20.736  31.735  53.359
93458W        W85382   2.748   3.791  51.051
93459W        W85383  24.712  11.769  51.075
93460W        W85384  41.209  45.199  50.153
93461W        W85385   1.284   3.755  51.976
93462W        W85386  19.734  31.248  51.515
93463W        W85387  42.181  36.215  52.405
93464W        W85388  37.222  10.238  50.585
93465W        W85389  37.710  11.269  50.600
93466W        W85390  30.728  41.220  49.698
93467W        W85391  16.248  31.724  51.513
93468W        W85392  31.244  15.765  53.357
93469W        W85393  30.712  19.751  52.440
93470W        W85394  20.224  41.187  51.047
93471W        W85395   9.773   4.262  51.523
93472W        W85396  22.753  31.218  50.145
93473W        W85397   6.778  25.740  49.688
93474W        W85398  13.278  18.756  52.904
93475W        W85399  41.223   1.773  51.534
93476W        W85400  19.729  24.738  53.353
93477W        W85401  18.726  31.202  52.903
93478W        W85402   1.772  20.226  49.694
93479W        W85403  47.184  46.696  52.895
93480W        W85404  28.722  16.769  52.410
93481W        W85405  15.736  20.245  53.349
93482W        W85406  18.237  16.264  50.163
93483W        W85407  25.256  26.210  52.439
93484W        W85408  16.252  46.679  51.950
93485W        W85409   2.749   9.758  51.054
93486W        W85410  17.756  30.243  51.982
93487W        W85411  20.244   8.772  51.039
93488W        W85412   5.746  25.757  50.600
93489W        W85413  19.752  26.725  50.597
93490W        W85414  12.234  45.186  51.987
93491W        W85415  20.761  15.252  52.438
93492W        W85416  40.230  14.759  53.350
93493W        W85417  10.264  17.768  52.421
93494W        W85418  48.220  32.699  52.887
93495W        W85419  36.236  43.223  50.128
93496W        W85420   1.765   5.766  51.991
93497W        W85421  39.196  36.723  49.709
93498W        W85422  46.221  34.238  53.785
93499W        W85423  40.728  27.208  50.601
93500W        W85424   1.791  17.226  49.676
93501W        W85425  41.209  14.242  51.499
93502W        W85426   0.269  47.703  53.321
93503W        W85427   2.772   4.254  52.860
93504W        W85428  45.199  12.746  53.321
93505W        W85429  39.198  46.189  51.971
93506W        W85430  30.242  32.231  51.043
93507W        W85431   8.778  33.211  49.673
93508W        W85432  13.746  46.207  49.682
93509W        W85433  17.264  48.179  51.078
93510W        W85434  10.253  21.257  50.136
93511W        W85435   3.771  30.739  51.948
93512W        W85436  23.233  24.732  50.157
93513W        W85437   3.774   9.273  50.580
93514W        W85438   0.282  38.224  52.878
93515W        W85439  22.222   5.265  51.524
93516W        W85440  12.769  19.735  50.139
93517W        W85441  40.693  10.733  50.612
93518W        W85442  23.750  23.757  50.603
93519W        W85443  43.206  15.260  50.128
93520W        W85444  12.274  19.762  51.522
93521W        W85445  34.742   5.773  51.512
93522W        W85446  21.763  43.211  53.775
93523W        W85447   3.276  15.734  51.954
93524W        W85448   0.750  12.261  52.411
93525W        W85449  14.740   6.259  51.971
93526W        W85450  13.258  21.752  53.356
93527W        W85451  46.185  11.769  49.683
93528W        W85452  47.176  45.195  49.679
93529W        W85453   6.271  12.749  53.802
93530W        W85454  33.208  24.223  51.989
93531W        W85455  36.204  31.733  51.953
93532W        W85456  44.208  42.725  52.885
93533W        W85457  26.747  45.213  53.349
93534W        W85458  17.752  22.254  53.322
93535W        W85459  44.699  19.240  49.709
93536W        W85460  47.703   5.744  52.888
93537W        W85461  34.737  28.221  50.143
93538W        W85462  45.686  15.240  52.889
93539W        W85463  16.265  25.710  50.149
93540W        W85464  45.723  16.766  49.680
93541W        W85465   4.278  12.268  51.517
93542W        W85466  26.226   9.236  52.893
93543W        W85467  13.768  31.232  50.141
93544W        W85468  27.211  39.706  49.689
93545W        W85469  31.722  17.224  51.983
93546W        W85470   8.770  44.711  50.158
93547W        W85471  14.237  21.252  52.903
93548W        W85472  33.719   6.751  51.954
93549W        W85473   3.748  37.189  52.444
93550W        W85474  31.714   3.750  52.873
93551W        W85475  20.736   3.783  49.677
93552W        W85476  38.198  24.221  51.065
93553W        W85477  12.277  11.771  53.772
93554W        W85478  19.245  15.270  50.600
93555W        W85479  38.695  47.701  53.774
93556W        W85480  23.236   7.749  53.796
93557W        W85481  34.238  22.762  53.328
93558W        W85482   8.265  24.728  52.412
93559W        W85483  20.739  20.239  51.519
93560W        W85484  17.768   7.743  51.046
93561W        W85485  32.731  16.248  50.137
93562W        W85486  20.256  12.770  51.057
93563W        W85487  22.724  35.703  52.417
93564W        W85488   6.271   9.774  53.359
93565W        W85489  29.234   9.747  51.069
93566W        W85490  39.213  11.769  50.599
93567W        W85491  23.226  35.732  52.879
93568W        W85492  36.701  10.261  53.354
93569W        W85493  30.247  32.718  50.144
93570W        W85494  40.705  33.719  51.039
93571W        W85495  48.189  12.275  52.902
93572W        W85496  38.727  30.727  53.361
93573W        W85497  22.721  36.194  49.700
93574W        W85498  44.214  36.697  53.316
93575W        W85499  15.730  17.757  53.795
93576W        W85500  13.265  44.198  50.166
93577W        W85501  47.180  42.683  50.154
93578W        W85502  26.743  42.190  53.801
93579W        W85503   8.238  30.736  51.522
93580W        W85504  40.721  35.723  53.776
93581W        W85505  33.727   7.243  51.491
93582W        W85506  35.239  36.693  51.078
93583W        W85507  42.180  47.174  52.883
93584W        W85508   2.787  17.739  52.893
93585W        W85509   6.764  15.734  51.050
93586W        W85510  28.735  36.211  53.774
93587W        W85511   6.277  24.256  51.971
93588W        W85512  18.754  29.251  52.432
93589W        W85513  30.719   5.747  51.528
93590W        W85514  28.741  10.737  50.584
93591W        W85515  10.740   4.260  51.515
93592W        W85516  32.703  13.777  53.333
93593W        W85517  46.207   6.269  51.059
93594W        W85518   0.251  26.220  50.132
93595W        W85519  20.249  20.732  52.879
93596W        W85520   2.746  47.683  49.701
93597W        W85521  29.703  34.705  53.798
93598W        W85522  46.693  38.213  51.527
93599W        W85523   6.262  16.266  50.588
93600W        W85524   6.752  17.770  49.684
93601W        W85525  10.776  26.740  51.529
93602W        W85526  29.715   6.289  52.426
93603W        W85527  42.718  46.222  52.434
93604W        W85528  11.241  13.728  52.861
93605W        W85529   4.266  40.725  51.499
93606W        W85530  13.247  12.772  49.673
93607W        W85531  46.218  25.214  53.793
93608W        W85532  20.242  18.748  53.811
93609W        W85533   9.756   3.745  51.509
93610W        W85534  39.202  40.211  51.956
93611W        W85535  34.710  16.770  53.334
93612W        W85536  43.212  38.227  51.062
93613W        W85537  42.187  27.753  50.166
93614W        W85538  46.186  10.744  53.361
93615W        W85539  25.222   0.275  52.882
93616W        W85540  27.745  38.209  52.890
93617W        W85541  23.233  34.734  50.158
93618W        W85542  23.250  27.736  53.812
93619W        W85543   7.784  23.731  52.433
93620W        W85544  23.237  29.224  51.069
93621W        W85545  42.213  16.745  49.681
93622W        W85546   3.263  44.215  51.508
93623W        W85547   1.265  35.710  52.447
93624W        W85548  32.201  12.268  50.158
93625W        W85549  12.252   9.738  49.664
93626W        W85550  29.206  39.710  51.505
93627W        W85551  11.766  25.749  51.963
93628W        W85552  23.734  45.724  50.128
93629W        W85553  12.241  25.735  53.811
93630W        W85554   2.290  44.207  53.784
93631W        W85555   8.274  31.236  51.961
93632W        W85556  45.199  15.733  51.962
93633W        W85557  22.758  16.751  50.596
93634W        W85558  40.203  21.743  51.490
93635W        W85559  43.199   7.285  52.422
93636W        W85560   2.267   4.288  50.134
93637W        W85561  29.715  28.240  53.817
93638W        W85562  42.207  17.265  51.527
93639W        W85563  24.724  43.183  52.897
93640W        W85564   1.286  25.750  51.038
93641W        W85565  35.230  30.716  50.138
93642W        W85566  13.236  22.751  50.147
93643W        W85567  19.262  16.754  51.974
93644W        W85568  41.699  20.745  49.675
93645W        W85569  16.250  46.703  51.516
93646W        W85570  39.732  48.209  52.410
93647W        W85571  11.280  10.246  53.775
93648W        W85572  32.239  26.221  52.888
93649W        W85573  35.236  41.687  53.339
93650W        W85574  26.746  27.723  51.984
93651W        W85575  18.263  13.278  51.972
93652W        W85576  44.698  20.720  50.138
93653W        W85577  14.266  24.246  50.151
93654W        W85578  22.762  38.716  50.579
93655W        W85579  20.753  25.723  50.149
93656W        W85580  24.235  41.215  50.620
93657W        W85581  47.717  40.192  52.900
93658W        W85582  46.676  20.265  51.074
93659W        W85583  44.200   9.755  51.971
93660W        W85584   4.250  22.762  51.036
93661W        W85585  41.715   6.272  51.046
93662W        W85586  20.736   7.773  51.065
93663W        W85587   2.759  10.761  50.159
93664W        W85588  41.199  47.694  51.508
93665W        W85589   9.243   0.273  51.054
93666W        W85590  47.688  11.279  53.361
93667W        W85591  31.230   2.274  51.042
93668W        W85592  15.264  17.725  53.801
93669W        W85593  37.190  44.700  50.611
93670W        W85594  14.246  38.210  51.979
93671W        W85595   6.739  13.761  49.681
93672W        W85596  16.266   1.293  51.975
93673W        W85597  30.725  11.744  50.125
93674W        W85598  13.739  17.732  51.075
93675W        W85599  23.235  15.727  50.582
93676W        W85600  10.748  19.222  53.356
93677W        W85601  12.239  13.262  53.351
93678W        W85602  43.701  40.200  49.677
93679W        W85603  44.199  10.278  50.147
93680W        W85604  20.737  33.220  50.597
93681W        W85605  23.228  26.747  53.333
93682W        W85606   5.272  33.737  53.811
93683W        W85607   5.755  17.262  51.525
93684W        W85608  30.212  42.716  50.583
93685W        W85609  42.709  39.715  49.697
93686W        W85610  10.242  22.250  52.885
93687W        W85611  36.718  27.731  50.603
93688W        W85612   2.247  19.727  51.060
93689W        W85613  43.215  35.705  51.062
93690W        W85614  27.725  43.685  53.790
93691W        W85615  42.229   6.261  52.441
93692W        W85616  47.176  14.775  51.047
93693W        W85617  29.208  38.205  49.709
93694W        W85618   4.764  18.265  52.889
93695W        W85619   0.797  23.736  53.807
93696W        W85620  24.226  13.744  53.817
93697W        W85621   1.251  24.238  51.522
93698W        W85622  32.228  26.214  51.501
93699W        W85623  30.700  42.191  52.439
93700W        W85624  15.758  33.223  53.328
93701W        W85625  14.237  22.258  51.073
93702W        W85626  24.727  13.261  53.356
93703W        W85627   9.275  20.753  50.149
93704W        W85628  36.708   5.258  51.513
93705W        W85629  28.221  24.750  49.681
93706W        W85630   1.796  26.212  50.621
93707W        W85631  14.250  41.692  53.782
93708W        W85632  10.752   8.750  51.042
93709W        W85633  29.718  39.200  49.705
93710W        W85634  16.229  20.750  53.341
93711W        W85635  24.220   2.786  51.961
93712W        W85636  38.212  24.230  51.967
93713W        W85637  28.237   2.251  52.876
93714W        W85638  46.209  43.684  51.954
93715W        W85639  41.207  23.714  51.071
93716W        W85640  15.771   7.762  50.160
93717W        W85641  25.744  11.771  50.124
93718W        W85642  31.235  33.714  53.786
93719W        W85643  47.189  38.236  51.491
93720W        W85644  13.775   1.280  49.705
93721W        W85645  34.227   7.785  50.160
93722W        W85646  34.199  17.263  49.670
93723W        W85647   5.750   2.262  49.682
93724W        W85648  46.207  33.721  49.693
93725W        W85649  12.256  18.725  52.869
93726W        W85650  22.256  23.240  51.048
93727W        W85651  13.731  44.198  53.799
93728W        W85652   2.787  44.719  50.163
93729W        W85653  11.746  39.711  52.882
93730W        W85654  32.238  20.227  51.057
93731W        W85655   7.282  45.213  50.162
93732W        W85656  37.195  21.216  51.973
93733W        W85657   2.780  21.229  51.966
93734W        W85658  22.258  39.221  53.797
93735W        W85659  43.186   4.254  53.320
93736W        W85660  24.737   4.282  53.811
93737W        W85661  20.245  28.705  49.698
93738W        W85662  15.764  47.208  51.063
93739W        W85663   5.771   9.757  49.697
93740W        W85664   7.283  38.206  53.335
93741W        W85665  27.245  45.719  53.327
93742W        W85666  32.237  47.704  49.690
93743W        W85667  47.215  24.731  52.872
93744W        W85668  23.242  18.767  50.599
93745W        W85669   8.737  18.262  53.353
93746W        W85670  11.245  42.207  53.350
93747W        W85671  20.765  35.240  50.602
93748W        W85672   8.257  13.761  49.693
93749W        W85673  26.749  41.224  53.356
93750W        W85674  11.253  46.675  51.531
93751W        W85675   4.757  37.191  51.508
93752W        W85676  19.250  33.698  50.145
93753W        W85677  45.708   3.285  53.785
93754W        W85678   3.260  16.750  51.056
93755W        W85679  42.716  41.700  50.601
93756W        W85680  31.201  32.217  52.414
93757W        W85681   3.290  25.245  52.403
93758W        W85682   4.256  29.714  52.428
93759W        W85683  23.728   2.767  51.964
93760W        W85684   0.784  42.702  53.814
93761W        W85685  40.684  48.200  50.583
93762W        W85686  33.240  43.204  51.495
93763W        W85687  29.716  28.740  50.621
93764W        W85688  41.203  27.746  50.608
93765W        W85689  45.204   3.281  52.429
93766W        W85690  22.231  25.232  52.415
93767W        W85691  41.720  12.740  53.330
93768W        W85692  10.258  42.212  49.679
93769W        W85693  17.235  40.195  50.165
93770W        W85694  40.712   1.269  49.681
93771W        W85695   3.289  47.187  50.129
93772W        W85696  25.743  41.723  50.588
93773W        W85697  37.214  43.183  53.784
93774W        W85698   4.254  29.204  53.321
93775W        W85699   0.272  48.172  51.034
93776W        W85700   6.770  10.243  53.801
93777W        W85701  16.754   7.774  51.063
93778W        W85702  24.213  18.732  51.049
93779W        W85703  21.737  19.736  51.949
93780W        W85704  41.692  12.239  53.781
93781W        W85705  33.705  37.695  51.987
93782W        W85706  30.225   6.287  52.870
93783W        W85707  30.217  28.214  53.796
93784W        W85708  20.750  45.713  52.881
93785W        W85709  30.707   2.783  50.121
93786W        W85710  45.720  36.694  53.334
93787W        W85711   3.273   4.287  50.133
93788W        W85712   6.279   7.781  51.054
93789W        W85713  11.732  43.211  53.807
93790W        W85714  48.207   3.273  53.806
93791W        W85715   2.783  28.206  52.884
93792W        W85716  22.754  37.194  53.335
93793W        W85717  11.253  47.203  53.354
93794W        W85718  38.199  14.770  51.991
93795W        W85719  34.705  38.711  50.123
93796W        W85720  21.749   1.264  50.153
93797W        W85721  10.264  14.754  53.349
93798W        W85722   5.767   5.276  50.141
93799W        W85723  28.732  11.774  50.160
93800W        W85724  15.257  35.708  52.896
93801W        W85725  44.206  10.740  52.440
93802W        W85726  46.217   5.284  50.591
93803W        W85727  38.214  33.214  53.317
93804W        W85728  35.198  19.751  53.814
93805W        W85729  17.753  38.715  51.991
93806W        W85730   7.741  35.207  50.126
93807W        W85731  22.741  14.236  51.498
93808W        W85732   3.776   3.263  51.494
93809W        W85733  36.733  42.207  53.336
93810W        W85734  32.716  26.253  49.674
93811W        W85735  24.725   2.288  49.705
93812W        W85736  11.755  21.726  51.069
93813W        W85737  45.208  35.707  49.672
93814W        W85738  14.272  39.709  50.161
93815W        W85739  43.193  13.772  52.406
93816W        W85740  24.733  10.746  52.411
93817W        W85741  18.736  27.742  51.047
93818W        W85742  38.191  39.221  52.898
93819W        W85743  29.749   2.266  52.415
93820W        W85744  14.761  18.767  53.796
93821W        W85745  46.191  24.246  50.145
93822W        W85746   8.281  20.730  51.047
93823W        W85747  39.209  16.755  50.591
93824W        W85748  47.719  26.243  51.511
93825W        W85749  23.751  11.758  51.978
93826W        W85750  44.218  18.764  52.904
93827W        W85751  23.216  42.720  51.956
93828W        W85752  30.211  34.707  52.884
93829W        W85753  35.200  40.184  51.063
93830W        W85754  48.216  33.242  51.492
93831W        W85755  42.694   8.274  50.601
93832W        W85756   4.764  12.739  50.621
93833W        W85757   2.764  43.186  51.527
93834W        W85758  13.276   3.748  49.669
93835W        W85759   2.762  19.254  51.956
93836W        W85760  33.238  40.228  50.162
93837W        W85761  10.256  41.730  53.783
93838W        W85762  12.245  36.726  51.071
93839W        W85763  16.240  20.224  53.328
93840W        W85764  19.264   7.763  50.622
93841W        W85765  12.740  10.271  51.963
93842W        W85766   1.295   2.779  52.446
93843W        W85767  41.183  26.217  49.687
93844W        W85768   1.282   2.263  50.606
93845W        W85769  15.232   3.781  53.359
93846W        W85770  41.683  21.259  49.681
93847W        W85771   8.762   7.767  51.045
93848W        W85772  36.216  39.203  51.975
93849W        W85773  40.719  24.223  53.785
93850W        W85774  28.224  40.195  53.346
93851W        W85775  45.182   7.779  53.795
93852W        W85776  28.232  43.709  49.703
93853W        W85777   9.280  42.187  51.036
93854W        W85778  29.235   6.246  51.952
93855W        W85779  24.257  34.208  52.884
93856W        W85780  18.269   0.794  50.583
93857W        W85781  27.212  36.690  51.533
93858W        W85782  34.718  48.195  52.443
93859W        W85783   6.786  20.255  50.602
93860W        W85784  32.246  42.205  50.599
93861W        W85785  14.236  47.682  50.588
93862W        W85786  22.732  30.230  52.409
93863W        W85787  29.204  32.233  51.055
93864W        W85788  44.223   8.257  53.815
93865W        W85789  37.191  29.738  53.359
93866W        W85790  18.727  47.219  51.061
93867W        W85791  35.700  39.195  51.948
93868W        W85792  14.232  13.248  52.870
93869W        W85793  45.697  39.687  50.619
93870W        W85794   7.745  37.230  50.582
93871W        W85795  19.259   2.262  53.339
93872W        W85796  10.245  26.228  51.035
93873W        W85797  21.224  21.243  51.490
93874W        W85798  21.716   0.798  53.329
93875W        W85799  23.255  12.740  51.496
93876W        W85800  33.725  18.255  50.579
93877W        W85801  24.711  46.195  51.078
93878W        W85802  37.189  12.251  52.861
93879W        W85803  30.217  37.693  51.984
93880W        W85804  37.736  16.224  49.675
93881W        W85805  24.250  25.756  50.588
93882W        W85806  38.696  27.707  52.430
93883W        W85807  19.236  18.756  50.164
93884W        W85808  31.709  17.222  49.692
93885W        W85809   6.271  25.250  53.799
93886W        W85810  45.690  42.224  51.066
93887W        W85811  12.759  43.199  53.354
93888W        W85812  31.704  38.201  50.155
93889W        W85813  17.257  28.245  50.164
93890W        W85814  13.771  33.736  53.808
93891W        W85815  45.688  14.768  51.978
93892W        W85816  20.236  24.749  51.954
93893W        W85817  29.202  47.685  49.695
93894W        W85818  32.735   1.258  52.430
93895W        W85819   2.291  43.207  49.684
93896W        W85820  26.711  34.708  50.123
93897W        W85821  32.718  40.719  52.415
93898W        W85822  32.236  37.700  51.970
93899W        W85823  14.274  46.707  51.967
93900W        W85824  19.239  17.226  51.034
93901W        W85825  44.706  34.720  50.140
93902W        W85826  11.763  38.691  51.526
93903W        W85827   1.755  46.706  51.989
93904W        W85828  24.753  42.183  50.138
93905W        W85829  45.206  14.270  51.056
93906W        W85830  19.244  27.207  53.809
93907W        W85831  12.230  21.751  52.881
93908W        W85832  24.714   0.794  49.701
93909W        W85833  37.691  33.714  49.703
93910W        W85834  18.723  12.271  51.968
93911W        W85835  12.264  43.682  53.323
93912W        W85836  44.719  19.238  53.816
93913W        W85837  27.724  45.704  51.041
93914W        W85838  38.227  27.724  51.502
93915W        W85839   5.774  14.267  51.533
93916W        W85840  12.256  33.239  53.797
93917W        W85841  10.769  32.227  50.164
93918W        W85842  42.698  34.216  53.816
93919W        W85843   1.758   4.268  52.887
93920W        W85844  15.246  27.227  49.680
93921W        W85845  11.236   4.750  50.588
93922W        W85846  24.229   2.792  50.136
93923W        W85847   6.266  20.716  51.502
93924W        W85848   8.239  19.735  52.410
93925W        W85849  24.254  25.730  52.445
93926W        W85850  45.693   4.289  53.341
93927W        W85851  14.276  44.679  50.162
93928W        W85852   7.241  14.773  51.991
93929W        W85853  20.259  37.710  50.129
93930W        W85854  21.738  35.719  51.520
93931W        W85855  13.228  37.707  52.443
93932W        W85856   9.739   5.282  53.781
93933W        W85857  14.738  33.699  49.705
93934W        W85858  23.727   9.267  50.614
93935W        W85859   6.741   1.282  52.903
93936W        W85860  27.705  46.717  51.956
93937W        W85861  42.698   5.255  51.037
93938W        W85862  17.250  36.729  51.063
93939W        W85863   8.736  14.774  53.338
93940W        W85864  20.747   3.253  53.334
93941W        W85865   9.764   6.776  50.134
93942W        W85866  31.726  19.746  53.318
93943W        W85867   6.745  34.719  52.411
93944W        W85868  11.273   9.735  51.064
93945W        W85869  20.742  25.209  51.077
93946W        W85870  14.755  37.213  53.342
93947W        W85871  16.764  36.208  51.967
93948W        W85872  19.231  14.759  51.059
93949W        W85873  16.772  46.203  51.973
93950W        W85874   6.777  33.202  50.608
93951W        W85875   7.771  48.199  52.433
93952W        W85876   2.248  28.249  53.817
93953W        W85877  22.252   2.752  50.123
93954W        W85878  17.266  34.698  49.664
93955W        W85879   7.263  21.221  50.122
93956W        W85880  37.727  25.709  49.699
93957W        W85881   5.761  20.755  51.041
93958W        W85882   5.782  37.202  49.681
93959W        W85883   7.781  30.718  53.778
93960W        W85884  21.223  38.187  51.506
93961W        W85885  24.733  24.238  49.682
93962W        W85886  15.764  15.263  50.612
93963W        W85887  15.265  14.756  49.686
93964W        W85888   6.280  10.770  53.336
93965W        W85889   9.266  17.770  51.062
93966W        W85890  39.694  12.231  49.664
93967W        W85891  36.195  18.260  52.884
93968W        W85892  14.231   2.770  51.963
93969W        W85893  32.705  38.193  51.065
93970W        W85894  23.215  32.226  52.876
93971W        W85895   0.751  44.208  52.881
93972W        W85896   3.766  40.216  53.811
93973W        W85897  11.766  45.721  51.044
93974W        W85898  39.190  38.219  50.583
93975W        W85899  25.244  46.676  53.342
93976W        W85900  41.693  32.238  50.594
93977W        W85901  46.697  15.756  53.797
93978W        W85902   9.267  16.765  51.955
93979W        W85903  13.741  16.265  51.959
93980W        W85904   3.754   4.258  51.051
93981W        W85905  16.251   3.252  53.777
93982W        W85906  25.721  24.228  52.421
93983W        W85907  24.752  43.215  51.517
93984W        W85908  19.250   5.789  52.901
93985W        W85909  36.194  43.693  51.515
93986W        W85910  32.740  39.720  51.531
93987W        W85911  40.198  13.266  51.059
93988W        W85912  41.686  14.244  52.893
93989W        W85913  23.256  20.236  51.061
93990W        W85914  34.197  43.214  50.123
93991W        W85915  37.736  17.745  52.895
93992W        W85916  30.203  34.704  53.790
93993W        W85917  34.729  43.192  49.677
93994W        W85918  18.757   5.779  53.318
93995W        W85919  37.195  18.229  50.163
93996W        W85920  18.260  32.697  53.779
93997W        W85921   7.765   0.759  52.426
93998W        W85922  11.235  38.687  51.968
93999W        W85923  17.225  34.704  53.808
94000W        W85924  45.713  19.742  50.158
94001W        W85925  30.242  23.222  49.705
94002W        W85926  16.734  38.202  53.778
94003W        W85927  32.724  46.702  49.690
94004W        W85928  33.234   8.237  49.675
94005W        W85929  45.201  23.234  51.969
94006W        W85930  11.232  31.226  52.407
94007W        W85931  10.766   9.752  50.140
94008W        W85932  15.262   8.244  50.140
94009W        W85933  38.696  20.254  52.434
94010W        W85934  22.217  43.692  52.428
94011W        W85935  37.207  30.748  49.681
94012W        W85936  23.711   8.285  51.957
94013W        W85937  13.766  25.250  53.330
94014W        W85938   6.279  10.279  53.781
94015W        W85939  27.238   0.795  53.351
94016W        W85940  15.734  33.719  49.688
94017W        W85941  21.230  29.723  52.422
94018W        W85942  42.702  39.696  52.408
94019W        W85943  34.734   6.776  50.141
94020W        W85944   3.271   6.741  51.981
94021W        W85945  17.733  12.744  50.584
94022W        W85946  42.183   3.787  52.421
94023W        W85947  30.241  11.741  50.158
94024W        W85948  16.745  22.217  51.491
94025W        W85949   2.280  31.713  52.878
94026W        W85950  15.273   6.277  53.341
94027W        W85951  46.705  27.220  52.878
94028W        W85952  36.218  23.740  52.433
94029W        W85953  29.239  17.765  51.978
94030W        W85954  16.763  36.699  50.592
94031W        W85955  33.202  48.177  52.403
94032W        W85956  28.741  23.223  51.493
94033W        W85957  42.684   0.273  52.892
94034W        W85958  32.235   6.289  52.869
94035W        W85959  12.742   2.294  53.343
94036W        W85960   7.754   8.747  52.425
94037W        W85961  45.678   0.750  52.441
94038W        W85962  24.733  34.714  51.077
94039W        W85963  25.218  21.758  50.131
94040W        W85964  46.698  43.226  53.345
94041W        W85965  25.239  35.216  53.800
94042W        W85966  24.260  30.228  52.896
94043W        W85967   5.273  43.190  50.607
94044W        W85968   7.269  13.265  52.861
94045W        W85969  38.715   4.780  51.956
94046W        W85970  13.256  44.200  52.431
94047W        W85971  23.236  25.755  51.071
94048W        W85972  12.748  12.242  51.525
94049W        W85973  44.685  13.247  52.902
94050W        W85974  26.226   9.271  50.132
94051W        W85975  44.724   2.294  51.959
94052W        W85976  32.701  29.243  52.411
94053W        W85977  11.780  12.777  49.667
94054W        W85978  17.751   7.285  49.690
94055W        W85979  31.736   8.759  51.955
94056W        W85980  44.220  32.240  50.161
94057W        W85981  35.721   8.781  53.801
94058W        W85982   9.244  40.197  52.874
94059W        W85983   3.766  17.264  51.498
94060W        W85984  48.213   9.273  51.948
94061W        W85985  21.727  15.254  50.160
94062W        W85986  28.248   5.778  49.681
94063W        W85987  47.209  33.723  49.684
94064W        W85988  44.217  33.227  52.867
94065W        W85989  11.763  47.709  53.803
94066W        W85990  16.762  48.194  52.876
94067W        W85991   6.285  32.233  50.145
94068W        W85992  13.240  10.253  53.781
94069W        W85993  31.746  26.217  52.888
94070W        W85994  23.217  29.718  50.143
94071W        W85995  27.719  45.715  52.872
94072W        W85996  41.211  27.217  50.151
94073W        W85997  19.257  33.213  49.691
94074W        W85998   8.780   1.770  52.877
94075W        W85999  15.769  48.209  51.040
94076W        W86000  24.723   8.249  51.063
94077W        W86001  31.227  25.209  49.686
94078W        W86002  29.705   0.283  52.407
94079W        W86003  32.209  46.204  49.690
94080W        W86004  27.241  37.205  51.040
94081W        W86005  37.698  14.258  53.334
94082W        W86006  41.221  13.235  53.328
94083W        W86007  13.743   0.268  52.864
94084W        W86008  39.695   3.280  52.886
94085W        W86009  44.677  17.246  50.581
94086W        W86010   5.254   1.768  51.512
94087W        W86011  25.225  25.739  53.792
94088W        W86012   3.247  12.740  51.517
94089W        W86013  20.248  43.706  49.695
94090W        W86014  28.216  28.219  53.357
94091W        W86015   9.780  36.727  50.581
94092W        W86016  30.228  46.704  51.504
94093W        W86017  28.723   8.748  51.978
94094W        W86018  32.735  39.231  51.069
94095W        W86019   2.253   1.273  51.529
94096W        W86020  44.715  46.220  50.586
94097W        W86021   3.793  23.218  53.343
94098W        W86022   9.746   5.282  51.054
94099W        W86023  34.205  29.222  49.707
94100W        W86024   1.770  12.271  53.344
94101W        W86025  38.194  27.254  51.514
94102W        W86026  25.210  24.748  51.054
94103W        W86027  35.215  15.272  51.494
94104W        W86028   8.776  14.238  52.890
94105W        W86029  13.759  40.211  50.597
94106W        W86030  44.703  24.256  51.064
94107W        W86031   5.253  31.237  51.517
94108W        W86032  44.706  45.184  51.055
94109W        W86033  27.241   5.790  53.775
94110W        W86034  23.736  36.692  52.443
94111W        W86035   2.749  18.727  53.327
94112W        W86036   9.775  42.199  51.974
94113W        W86037  28.734  24.236  53.329
94114W        W86038  35.218  47.711  52.411
94115W        W86039  31.739  28.747  53.796
94116W        W86040  36.701   9.267  51.077
94117W        W86041  15.229  23.729  53.798
94118W        W86042   5.276   4.271  53.781
94119W        W86043  26.234  42.723  50.612
94120W        W86044   2.274   4.772  52.425
94121W        W86045  39.235   0.286  50.620
94122W        W86046  23.227  15.255  53.327
94123W        W86047   0.295  29.241  51.070
94124W        W86048  34.200   8.275  53.811
94125W        W86049  15.241  22.759  49.680
94126W        W86050  18.738  47.217  51.492
94127W        W86051   7.272   8.241  52.443
94128W        W86052  24.216  35.219  51.972
94129W        W86053  29.239  25.728  50.608
94130W        W86054   4.279   9.274  53.328
94131W        W86055  22.232  44.208  53.785
94132W        W86056  37.721  14.728  52.443
94133W        W86057  25.242  26.710  50.161
94134W        W86058   9.779  39.707  51.981
94135W        W86059  16.740   6.249  53.329
94136W        W86060  35.193  34.732  50.128
94137W        W86061  17.227  29.725  53.344
94138W        W86062  10.261   1.278  53.343
94139W        W86063  31.727  44.184  52.433
94140W        W86064   1.266  42.202  51.054
94141W        W86065  12.741  18.764  52.431
94142W        W86066   9.783  15.261  51.976
94143W        W86067  22.718  22.754  51.516
94144W        W86068  43.213  46.212  50.129
94145W        W86069  38.207   6.240  52.414
94146W        W86070  33.741  35.225  49.708
94147W        W86071  36.213  47.686  49.680
94148W        W86072  31.738  35.722  51.519
94149W        W86073  40.195  14.731  53.803
94150W        W86074  24.759  20.240  50.127
94151W        W86075  41.214  33.696  53.343
94152W        W86076  17.756  18.237  50.587
94153W        W86077  32.237  10.771  50.144
94154W        W86078  41.210  41.194  50.602
94155W        W86079  34.197  15.255  51.984
94156W        W86080  19.734  40.201  49.699
94157W        W86081  20.251  13.269  50.126
94158W        W86082   5.774  20.232  53.360
94159W        W86083  33.709  27.722  51.967
94160W        W86084  46.200   7.753  52.902
94161W        W86085  44.184  12.234  52.902
94162W        W86086   9.238  22.219  50.148
94163W        W86087   1.258   5.750  51.040
94164W        W86088  41.215  19.721  52.881
94165W        W86089  29.247  28.721  53.804
94166W        W86090  46.719  23.738  50.601
94167W        W86091  17.235  44.720  51.495
94168W        W86092  37.690  25.738  53.325
94169W        W86093  20.230  34.235  51.991
94170W        W86094  22.752  41.189  50.131
94171W        W86095  31.705  25.236  53.817
94172W        W86096  32.719  11.251  50.586
94173W        W86097  37.195  25.739  51.511
94174W        W86098  46.690  30.724  53.346
94175W        W86099  19.241   7.761  51.060
94176W        W86100  15.256  39.716  53.345
94177W        W86101  21.240   1.259  51.035
94178W        W86102   4.773  15.771  53.797
94179W        W86103   6.250  36.215  50.610
94180W        W86104  28.205  33.719  53.344
94181W        W86105  15.239   9.256  50.128
94182W        W86106  29.225  41.713  52.422
94183W        W86107  15.756  37.697  52.440
94184W        W86108  17.235  12.237  49.690
94185W        W86109  32.231  17.257  51.973
94186W        W86110  14.766  13.275  52.891
94187W        W86111  11.242  15.244  53.334
94188W        W86112  11.253  34.706  53.799
94189W        W86113  37.227  39.205  52.443
94190W        W86114   8.755  18.768  50.132
94191W        W86115  29.743  29.717  52.903
94192W        W86116  38.210   3.792  53.326
94193W        W86117  46.192  11.759  50.139
94194W        W86118   0.769  29.724  52.871
94195W        W86119  42.217   4.254  51.535
94196W        W86120  20.764  29.234  52.417
94197W        W86121  35.199  12.239  52.893
94198W        W86122  11.734  13.751  50.134
94199W        W86123   2.278  28.735  50.586
94200W        W86124  38.194   3.778  49.665
94201W        W86125  40.201  39.233  49.701
94202W        W86126  15.244  38.211  50.161
94203W        W86127  28.210  36.214  52.425
94204W        W86128  48.190   2.279  51.517
94205W        W86129   1.260  33.694  50.129
94206W        W86130   7.240  28.230  49.703
94207W        W86131  17.768  44.226  52.873
94208W        W86132  26.213   2.254  53.343
94209W        W86133  41.702  36.226  53.342
94210W        W86134  19.725  10.255  53.356
94211W        W86135  30.236  18.738  51.953
94212W        W86136  34.227  18.247  52.888
94213W        W86137  31.220  42.181  52.432
94214W        W86138  34.711  22.223  51.051
94215W        W86139   9.261  24.748  51.050
94216W        W86140  32.215  22.262  52.412
94217W        W86141  19.751  38.224  53.780
94218W        W86142  27.211  34.222  51.973
94219W        W86143  20.764  33.697  50.138
94220W        W86144  15.747  36.215  49.677
94221W        W86145  48.194  26.727  52.871
94222W        W86146  26.735  28.734  53.809
94223W        W86147  45.701  31.726  53.361
94224W        W86148  29.727   6.280  51.991
94225W        W86149  40.198  38.217  50.143
94226W        W86150  25.728  42.220  50.154
94227W        W86151  29.732   8.285  50.163
94228W        W86152  22.225  38.203  52.430
94229W        W86153  31.718  39.196  51.057
94230W        W86154   3.251  43.719  50.129
94231W        W86155  20.751  19.238  53.332
94232W        W86156   9.765  17.736  50.147
94233W        W86157  16.735   6.257  51.532
94234W        W86158  16.231   8.257  50.150
94235W        W86159  35.705  30.713  50.139
94236W        W86160  39.225   3.760  51.078
94237W        W86161  30.215  29.712  49.665
94238W        W86162  40.714  47.195  53.773
94239W        W86163  42.714  28.251  50.143
94240W        W86164  41.192  46.204  53.810
94241W        W86165  40.216  11.753  52.891
94242W        W86166  43.679  27.724  51.061
94243W        W86167  13.264  11.759  49.703
94244W        W86168  32.225  43.709  50.158
94245W        W86169  45.704  24.717  51.521
94246W        W86170  13.239   1.273  52.436
94247W        W86171  17.225  29.240  50.595
94248W        W86172  11.764  28.735  52.903
94249W        W86173  44.701  45.695  49.668
94250W        W86174  15.235  48.218  50.151
94251W        W86175  41.228  17.270  49.665
94252W        W86176  34.199  27.235  53.345
94253W        W86177  11.256  20.228  53.799
94254W        W86178  21.737  11.772  52.408
94255W        W86179  27.711   1.254  50.155
94256W        W86180  23.744  11.259  52.413
94257W        W86181  27.749  25.253  49.701
94258W        W86182  25.722  11.736  53.329
94259W        W86183  46.215  37.696  52.410
94260W        W86184  21.745  19.259  53.320
94261W        W86185  21.715  37.732  51.042
94262W        W86186   6.240  47.217  53.818
94263W        W86187  17.769  23.726  51.520
94264W        W86188  29.212  25.243  53.350
94265W        W86189  36.734  21.246  51.949
94266W        W86190   2.271  24.239  51.491
94267W        W86191  12.255  40.683  50.123
94268W        W86192  43.215  28.725  52.439
94269W        W86193  14.268  28.709  50.578
94270W        W86194  14.768   7.284  50.598
94271W        W86195  37.712  12.770  51.965
94272W        W86196  41.197  21.227  53.330
94273W        W86197   5.260  11.241  50.143
94274W        W86198  21.733   0.288  50.606
94275W        W86199  11.761  42.214  51.058
94276W        W86200  19.725  23.227  53.805
94277W        W86201  30.201  10.758  53.810
94278W        W86202  16.758  36.211  50.166
94279W        W86203  40.708  41.208  53.812
94280W        W86204   3.282   1.764  49.709
94281W        W86205  23.250  13.766  53.336
94282W        W86206  38.715  46.707  53.775
94283W        W86207  39.702  36.726  52.872
94284W        W86208  22.726  33.715  50.595
94285W        W86209  27.753   0.758  49.695
94286W        W86210  46.702  16.743  51.516
94287W        W86211  27.245   7.263  51.058
94288W        W86212   0.264  36.719  52.902
94289W        W86213  24.244  46.213  53.808
94290W        W86214  27.731  28.705  53.809
94291W        W86215  18.757  35.715  52.419
94292W        W86216  39.191  27.733  52.879
94293W        W86217  20.231   9.748  53.354
94294W        W86218  16.224  26.750  51.043
94295W        W86219  19.226  47.175  49.680
94296W        W86220  16.260  30.738  51.516
94297W        W86221  37.192  37.715  51.056
94298W        W86222  21.721  21.251  51.968
94299W        W86223  35.225  19.752  50.154
94300W        W86224  23.731  31.719  52.439
94301W        W86225   8.242  15.250  51.076
94302W        W86226   9.246   3.779  51.974
94303W        W86227  46.215  42.183  52.861
94304W        W86228  39.701  39.686  51.955
94305W        W86229  32.744  22.755  53.800
94306W        W86230   9.762  39.729  50.149
94307W        W86231  10.267   1.789  49.692
94308W        W86232  35.735  47.202  50.146
94309W        W86233   6.766  24.713  53.778
94310W        W86234   6.786  21.728  49.683
94311W        W86235  38.194  18.253  49.701
94312W        W86236  32.203   0.263  51.961
94313W        W86237  33.724  26.720  51.971
94314W        W86238  14.233  16.726  51.521
94315W        W86239  40.704  43.685  50.131
94316W        W86240  23.714  23.231  50.620
94317W        W86241  24.227   1.289  51.516
94318W        W86242  41.730  27.732  53.341
94319W        W86243  27.723  25.212  50.586
94320W        W86244   2.761  15.743  52.442
94321W        W86245  12.254  29.229  49.692
94322W        W86246  11.767  27.217  49.673
94323W        W86247  36.222  10.271  50.152
94324W        W86248  32.696  41.683  53.335
94325W        W86249  24.712  32.242  50.590
94326W        W86250  21.738   0.280  53.351
94327W        W86251  41.204  19.233  53.785
94328W        W86252   7.265  21.216  51.046
94329W        W86253   4.750   2.290  53.787
94330W        W86254  21.221   5.277  49.709
94331W        W86255  26.751  12.751  50.593
94332W        W86256   2.765   4.789  51.526
94333W        W86257   9.763  33.717  51.069
94334W        W86258  44.688  22.219  52.407
94335W        W86259  36.717  22.250  50.601
94336W        W86260  21.745  41.694  53.808
94337W        W86261   1.771  21.217  51.506
94338W        W86262  28.750   5.258  51.036
94339W        W86263  41.199  25.216  51.983
94340W        W86264   0.786  39.713  49.700
94341W        W86265  25.235  11.258  52.439
94342W        W86266   8.761  39.699  51.964
94343W        W86267  20.228  16.242  50.618
94344W        W86268   8.756  47.175  51.509
94345W        W86269   1.269  15.264  50.606
94346W        W86270  32.214  32.706  50.127
94347W        W86271  34.195  36.204  53.316
94348W        W86272  10.767   6.752  50.601
94349W        W86273  44.209  31.230  51.955
94350W        W86274  41.718  34.695  51.039
94351W        W86275  26.721  33.716  50.142
94352W        W86276  13.738  45.205  50.165
94353W        W86277  36.214  19.757  51.071
94354W        W86278  36.194   2.277  51.522
94355W        W86279  41.694  40.199  49.674
94356W        W86280  46.210  37.213  50.151
94357W        W86281   6.767  33.209  53.775
94358W        W86282  34.225   7.772  52.886
94359W        W86283   4.254  31.202  51.962
94360W        W86284  11.756  38.705  52.410
94361W        W86285  41.697  20.752  50.134
94362W        W86286   1.776  36.228  52.892
94363W        W86287  26.217  34.197  51.985
94364W        W86288  38.192   4.788  50.622
94365W        W86289  31.729  48.182  49.670
94366W        W86290  28.742  23.247  51.062
94367W        W86291  45.219  46.718  50.592
94368W        W86292   9.253  46.208  52.881
94369W        W86293  39.225  14.235  53.798
94370W        W86294  23.730  16.758  52.448
94371W        W86295  10.263  36.217  50.147
94372W        W86296  27.245  40.193  51.059
94373W        W86297  30.739  19.244  51.947
94374W        W86298  43.214   6.253  53.332
94375W        W86299  17.227  19.221  51.036
94376W        W86300  44.191  19.220  51.515
94377W        W86301  43.180  28.711  51.064
94378W        W86302  14.244  18.759  49.699
94379W        W86303   1.787   8.737  53.774
94380W        W86304  44.212  30.218  49.683
94381W        W86305   1.755   8.260  51.530
94382W        W86306   0.791  11.271  53.809
94383W        W86307  19.728  32.733  53.360
94384W        W86308  37.206  22.716  52.445
94385W        W86309   2.785  11.253  51.077
94386W        W86310  34.713  24.253  52.894
94387W        W86311  14.765  25.230  50.154
94388W        W86312  10.766   4.770  53.773
94389W        W86313   0.788  23.244  50.124
94390W        W86314  20.221  10.774  49.665
94391W        W86315  16.249  48.194  53.325
94392W        W86316  16.772  45.199  53.817
94393W        W86317  14.255  16.243  53.336
94394W        W86318  35.706  18.230  53.782
94395W        W86319  41.709  29.703  52.888
94396W        W86320  17.227  16.727  53.807
94397W        W86321   1.274   3.287  52.438
94398W        W86322  45.701  29.740  51.981
94399W        W86323  38.709  40.702  53.357
94400W        W86324  21.251   7.246  52.874
94401W        W86325  41.218  31.733  52.886
94402W        W86326  41.209  45.692  53.330
94403W        W86327  43.723  23.731  49.666
94404W        W86328  34.210   9.773  52.430
94405W        W86329   8.776  47.711  50.594
94406W        W86330  34.696  12.248  51.039
94407W        W86331  26.232  37.229  53.347
94408W        W86332  44.201   5.245  52.877
94409W        W86333  22.762  45.692  51.979
94410W        W86334  27.240  29.223  52.418
94411W        W86335  47.711  17.748  52.424
94412W        W86336  21.230  11.769  53.318
94413W        W86337  10.777  13.769  53.795
94414W        W86338  25.223  35.236  52.434
94415W        W86339  35.204  27.215  52.881
94416W        W86340   6.246   2.247  50.580
94417W        W86341  19.242  20.230  51.516
94418W        W86342   9.745  35.216  53.355
94419W        W86343  12.258  40.720  52.418
94420W        W86344  24.249   1.754  51.035
94421W        W86345   0.293  12.758  52.893
94422W        W86346  22.760  30.742  52.878
94423W        W86347   4.764  19.735  53.319
94424W        W86348  24.723  34.201  52.890
94425W        W86349   6.760   3.763  53.345
94426W        W86350  17.747   3.756  50.619
94427W        W86351   7.288  40.685  53.345
94428W        W86352  16.756   7.767  50.595
94429W        W86353  31.215  33.736  50.603
94430W        W86354  37.203  38.228  53.319
94431W        W86355   0.794  35.732  49.693
94432W        W86356   3.293  26.731  52.894
94433W        W86357   6.786  32.740  50.122
94434W        W86358  31.233  24.218  52.421
94435W        W86359  17.243  25.242  51.047
94436W        W86360  30.710  28.726  49.686
94437W        W86361   2.754  32.204  52.423
94438W        W86362   6.741  48.182  51.962
94439W        W86363  25.736  41.184  51.054
94440W        W86364  11.762  18.223  51.038
94441W        W86365  19.236  31.201  52.881
94442W        W86366  20.255  27.252  51.948
94443W        W86367  27.733   6.766  51.053
94444W        W86368   3.283  39.714  53.789
94445W        W86369   6.782   5.756  52.885
94446W        W86370  48.212   6.282  50.149
94447W        W86371   5.270  23.258  51.523
94448W        W86372  38.210  42.682  52.898
94449W        W86373  37.211  28.212  53.326
94450W        W86374  38.724  32.721  50.610
94451W        W86375  44.205  24.251  53.779
94452W        W86376  12.731  42.196  52.435
94453W        W86377  27.717  28.731  51.079
94454W        W86378  22.257  29.236  53.782
94455W        W86379  30.711  30.234  53.333
94456W        W86380  16.744  41.224  49.677
94457W        W86381  43.704  25.737  49.676
94458W        W86382   6.742  15.236  52.873
94459W        W86383  27.229  28.231  52.868
94460W        W86384  21.253  10.782  50.150
94461W        W86385  44.203  38.215  51.535
94462W        W86386  12.236  47.696  51.975
94463W        W86387  34.693  36.708  51.516
94464W        W86388   0.771  41.685  52.428
94465W        W86389  46.209  33.197  53.350
94466W        W86390  37.199  46.217  52.900
94467W        W86391  45.720   9.774  50.601
94468W        W86392   1.760  33.739  50.606
94469W        W86393   9.742  44.697  52.410
94470W        W86394   3.766  20.747  49.665
94471W        W86395  38.224  46.186  51.990
94472W        W86396  11.742  43.196  52.875
94473W        W86397  46.688  41.225  50.618
94474W        W86398  22.733   5.290  51.980
94475W        W86399  29.729  34.241  51.992
94476W        W86400   0.784  20.224  52.887
94477W        W86401  13.767  15.227  52.893
94478W        W86402   6.760   8.284  52.403
94479W        W86403  47.686   3.763  49.710
94480W        W86404  45.696  34.227  49.667
94481W        W86405  37.712   2.270  53.804
94482W        W86406  44.223  35.717  52.412
94483W        W86407   5.790  24.710  51.068
94484W        W86408  44.214  21.717  53.797
94485W        W86409  23.225  12.763  51.060
94486W        W86410  40.233  32.216  52.894
94487W        W86411  39.227   0.756  49.666
94488W        W86412  43.701   5.270  53.808
94489W        W86413  26.236  12.737  52.877
94490W        W86414   2.282  45.193  52.880
94491W        W86415  42.203  37.701  51.968
94492W        W86416  47.197  10.743  50.600
94493W        W86417  42.703  26.723  53.346
94494W        W86418   9.770  43.227  49.699
94495W        W86419  40.206  38.714  52.447
94496W        W86420  48.218  34.214  51.958
94497W        W86421  47.674  41.730  51.989
94498W        W86422  29.204  21.739  49.675
94499W        W86423   8.255  38.198  51.076
94500W        W86424  36.200  20.754  50.128
94501W        W86425  38.196  40.720  51.973
94502W        W86426  37.196  43.723  52.883
94503W        W86427   9.757  30.206  50.161
94504W        W86428  44.689  13.252  53.334
94505W        W86429  21.235  29.240  50.158
94506W        W86430  15.725  45.698  50.609
94507W        W86431  44.713  43.190  50.612
94508W        W86432   0.761  44.216  52.423
94509W        W86433  40.698  44.213  50.617
94510W        W86434  18.240  21.758  51.947
94511W        W86435   4.792  17.738  50.612
94512W        W86436  10.241  26.218  50.607
94513W        W86437  35.201  11.752  52.423
94514W        W86438  20.746  21.719  50.590
94515W        W86439  11.247  22.728  50.150
94516W        W86440  15.249   0.267  51.517
94517W        W86441  35.196  19.752  50.580
94518W        W86442  47.199  41.228  49.690
94519W        W86443   4.280  19.235  52.903
94520W        W86444  37.218  33.205  52.876
94521W        W86445  37.212   7.245  50.602
94522W        W86446  36.228  41.192  52.887
94523W        W86447   2.290  41.225  52.431
94524W        W86448  29.742  43.704  49.678
94525W        W86449  35.227  10.735  52.865
94526W        W86450  16.735   6.755  53.811
94527W        W86451  41.714   6.255  52.445
94528W        W86452  37.193  31.204  50.130
94529W        W86453  24.246  17.252  49.709
94530W        W86454  36.700  21.258  52.419
94531W        W86455  39.190  33.245  53.817
94532W        W86456  11.739  39.225  52.431
94533W        W86457   0.797  46.212  52.864
94534W        W86458  45.223   1.749  49.677
94535W        W86459  16.263  27.217  51.970
94536W        W86460  29.721   2.760  51.500
94537W        W86461  19.738  44.710  51.058
94538W        W86462  20.253  47.707  52.427
94539W        W86463  35.724  11.269  51.035
94540W        W86464  48.175  10.267  50.145
94541W        W86465  27.743   1.278  51.039
94542W        W86466  41.712   3.771  51.037
94543W        W86467  38.219  16.258  52.410
94544W        W86468  48.175  25.730  50.614
94545W        W86469  38.702  21.737  53.352
94546W        W86470  16.735  40.709  52.431
94547W        W86471  26.709  38.230  49.688
94548W        W86472  16.737  11.237  51.527
94549W        W86473  22.221  43.713  52.863
94550W        W86474  11.745  18.251  51.952
94551W        W86475  16.727  39.703  53.324
94552W        W86476  19.734  14.771  49.703
94553W        W86477  32.718  44.204  53.785
94554W        W86478  45.201  29.721  50.578
94555W        W86479   2.294  34.716  50.129
94556W        W86480  33.202  20.744  52.423
94557W        W86481  12.761   5.780  52.897
94558W        W86482   8.779  40.207  50.144
94559W        W86483  37.215  10.751  49.680
94560W        W86484  36.198  31.234  52.891
94561W        W86485   7.744  37.733  50.612
94562W        W86486  15.757  19.719  53.330
94563W        W86487   8.747   8.273  52.433
94564W        W86488  42.714  33.718  53.321
94565W        W86489  24.222   7.771  52.900
94566W        W86490  22.252  45.706  53.774
94567W        W86491  25.235  25.215  51.980
94568W        W86492  10.267  16.765  53.791
94569W        W86493   2.251  41.194  53.357
94570W        W86494  29.230   3.775  51.951
94571W        W86495  30.716  23.756  53.786
94572W        W86496  16.753   0.790  52.894
94573W        W86497  22.249  22.750  53.342
94574W        W86498  37.189  42.209  52.427
94575W        W86499  11.750  39.218  49.708
94576W        W86500   6.272  29.220  53.359
94577W        W86501   0.285  13.240  49.667
94578W        W86502  10.770   3.770  53.347
94579W        W86503  36.220  21.735  52.403
94580W        W86504  34.738   0.297  53.345
94581W        W86505  43.228  13.742  52.873
94582W        W86506  20.742  26.211  49.702
94583W        W86507  23.230   4.790  51.515
94584W        W86508   0.281  32.243  51.519
94585W        W86509  33.219  13.775  53.317
94586W        W86510  22.736  24.715  52.441
94587W        W86511  18.232  10.249  53.786
94588W        W86512  29.711  14.262  50.601
94589W        W86513  40.720  12.740  50.606
94590W        W86514  22.235  24.758  51.520
94591W        W86515  13.736   8.275  51.034
94592W        W86516   5.281  34.698  51.062
94593W        W86517   0.768   5.244  50.131
94594W        W86518  20.254  38.208  50.154
94595W        W86519  21.716  48.211  51.504
94596W        W86520  14.764  19.228  51.527
94597W        W86521  29.728   0.750  51.061
94598W        W86522  28.251  10.248  50.163
94599W        W86523  10.754  36.727  53.325
94600W        W86524   7.767  18.224  51.977
94601W        W86525  24.237  19.245  51.528
94602W        W86526  18.731   6.765  50.136
94603W        W86527  23.249   8.250  50.621
94604W        W86528  12.743   5.756  52.444
94605W        W86529  37.231  23.234  51.046
94606W        W86530  24.752  18.228  51.971
94607W        W86531  28.229  34.694  50.135
94608W        W86532  26.738  12.738  51.950
94609W        W86533   5.256  34.731  51.971
94610W        W86534  29.719  43.180  53.814
94611W        W86535   8.285   4.282  51.529
94612W        W86536   9.772  38.236  51.077
94613W        W86537   7.781  35.734  50.602
94614W        W86538  39.731  48.195  51.528
94615W        W86539  39.714   3.777  52.864
94616W        W86540  25.244  33.242  52.878
94617W        W86541  32.243  26.733  50.142
94618W        W86542  27.742  47.695  51.959
94619W        W86543  19.755  45.204  53.332
94620W        W86544  25.245  17.240  51.952
94621W        W86545  21.257  45.179  52.860
94622W        W86546  42.188  39.712  51.505
94623W        W86547  17.729  11.277  52.882
94624W        W86548  41.691  36.701  51.515
94625W        W86549  18.768  31.235  50.136
94626W        W86550  41.203  40.716  49.676
94627W        W86551   7.753  11.737  53.801
94628W        W86552  16.263  24.715  50.149
94629W        W86553  30.239  26.737  50.141
94630W        W86554  46.194  43.688  50.138
94631W        W86555   2.283   2.794  51.043
94632W        W86556  20.733  29.735  52.866
94633W        W86557  20.250  17.751  53.338
94634W        W86558  22.744   0.773  52.891
94635W        W86559   2.746   7.768  52.901
94636W        W86560  30.248  25.736  50.586
94637W        W86561  17.741   3.265  51.036
94638W        W86562  14.760  27.750  53.360
94639W        W86563  38.693  20.249  52.881
94640W        W86564  11.258  45.193  50.130
94641W        W86565  42.696   4.291  51.953
94642W        W86566   7.270  10.743  51.960
94643W        W86567  37.701  46.722  53.812
94644W        W86568  24.741  27.715  52.432
94645W        W86569   1.749  28.711  51.039
94646W        W86570  17.768  42.729  50.157
94647W        W86571  10.734   2.263  49.689
94648W        W86572  11.244   6.271  51.525
94649W        W86573  18.720  20.267  50.148
94650W        W86574  28.229  10.776  52.883
94651W        W86575   9.757  34.700  50.606
94652W        W86576  31.737  43.711  49.687
94653W        W86577   6.760  26.731  52.896
94654W        W86578  10.271  22.257  53.785
94655W        W86579   3.777  19.257  52.902
94656W        W86580   0.260   6.744  51.498
94657W        W86581  21.729   9.742  51.948
94658W        W86582  43.697  47.696  53.801
94659W        W86583  37.236  10.272  51.974
94660W        W86584  35.726   9.265  52.903
94661W        W86585  11.247  26.231  51.530
94662W        W86586  43.226   1.254  51.497
94663W        W86587  41.683  12.776  49.666
94664W        W86588   9.269  27.220  51.965
94665W        W86589  25.735  13.271  53.791
94666W        W86590  41.696  21.745  51.490
94667W        W86591  39.217  43.226  53.351
94668W        W86592  16.245  29.746  50.598
94669W        W86593  27.247  10.754  50.157
94670W        W86594  31.743  37.220  53.360
94671W        W86595  14.275   4.786  52.412
94672W        W86596   1.783  22.232  53.788
94673W        W86597  32.239   1.280  53.781
94674W        W86598  40.210   6.247  51.521
94675W        W86599  18.239  35.232  51.966
94676W        W86600   6.748   9.740  50.131
94677W        W86601   4.265   7.275  53.816
94678W        W86602  24.717   6.761  50.154
94679W        W86603  35.722  25.209  50.127
94680W        W86604  35.224  15.748  52.422
94681W        W86605  46.214  32.713  49.665
94682W        W86606  24.719  32.230  50.147
94683W        W86607   7.268   5.755  51.515
94684W        W86608  37.711   6.782  52.442
94685W        W86609  18.260  16.270  49.666
94686W        W86610  33.696  25.243  53.814
94687W        W86611  28.728  36.205  51.514
94688W        W86612   7.740  18.764  52.403
94689W        W86613   2.778   3.785  49.667
94690W        W86614   0.260  29.202  50.146
94691W        W86615  17.750  45.678  53.805
94692W        W86616  16.760  44.196  53.360
94693W        W86617   0.792   7.272  52.871
94694W        W86618   1.285   3.752  53.354
94695W        W86619  28.237  23.261  52.864
94696W        W86620  20.223  10.735  50.153
94697W        W86621  38.196  30.209  51.496
94698W        W86622  17.245  34.222  51.061
94699W        W86623  10.764  41.196  49.697
94700W        W86624  43.226  41.217  51.532
94701W        W86625  20.737  18.764  51.966
94702W        W86626   5.265   4.276  53.322
94703W        W86627  42.722  41.212  52.880
94704W        W86628  16.735  13.263  50.138
94705W        W86629  10.757  46.677  53.799
94706W        W86630  39.229  47.185  51.518
94707W        W86631  30.235   4.747  53.353
94708W        W86632  46.222  43.724  53.813
94709W        W86633  20.731  18.752  51.496
94710W        W86634  12.256   8.258  51.074
94711W        W86635  13.274  27.744  51.504
94712W        W86636  39.222  40.209  52.898
94713W        W86637  29.722  43.727  53.320
94714W        W86638   1.781   4.248  53.779
94715W        W86639  46.178  43.181  49.692
94716W        W86640   7.265  45.185  53.808
94717W        W86641  39.693  41.704  50.579
94718W        W86642  25.720  28.726  50.143
94719W        W86643  25.248  13.266  52.405
94720W        W86644  13.236  29.725  53.774
94721W        W86645  22.232   1.268  51.518
94722W        W86646  10.240  28.751  51.528
94723W        W86647   1.788  34.727  50.580
94724W        W86648  41.204  12.746  49.665
94725W        W86649  26.710  36.239  50.131
94726W        W86650  32.733  28.224  51.989
94727W        W86651  11.237   3.291  51.058
94728W        W86652  11.756  24.232  50.621
94729W        W86653  16.723   7.265  53.347
94730W        W86654   4.765  33.235  53.808
94731W        W86655  45.208  45.701  50.141
94732W        W86656  33.699  12.755  51.049
94733W        W86657  10.274  43.707  51.976
94734W        W86658  38.198  20.739  51.961
94735W        W86659  38.718  25.251  53.356
94736W        W86660  47.206  41.691  50.153
94737W        W86661  46.701  20.217  52.885
94738W        W86662  21.229  19.221  50.153
94739W        W86663  15.767  13.753  49.676
94740W        W86664  24.228  10.780  53.348
94741W        W86665  24.742  12.771  50.593
94742W        W86666  15.767  21.746  52.903
94743W        W86667   0.764  22.224  51.978
94744W        W86668   5.747  43.714  50.157
94745W        W86669  44.721  18.251  51.075
94746W        W86670  31.238  16.724  49.702
94747W        W86671  39.222   8.246  52.870
94748W        W86672  23.743   3.789  49.696
94749W        W86673  47.680  37.693  49.691
94750W        W86674  34.726   9.737  52.879
94751W        W86675   0.756  30.209  49.665
94752W        W86676  24.713  41.698  53.784
94753W        W86677  29.722  25.751  50.134
94754W        W86678  31.731  12.237  52.444
94755W        W86679   9.771  21.234  49.675
94756W        W86680   2.248   8.242  51.496
94757W        W86681  21.263  15.226  51.068
94758W        W86682  46.679  47.701  53.342
94759W        W86683  28.704   2.788  52.436
94760W        W86684  35.228   7.283  49.671
94761W        W86685  22.216  32.231  50.163
94762W        W86686  47.684  35.211  50.150
94763W        W86687  34.698  18.258  52.436
94764W        W86688   7.778  25.731  51.073
94765W        W86689  30.722  25.718  51.493
94766W        W86690  12.764  22.719  53.773
94767W        W86691  44.206   0.264  49.702
94768W        W86692  30.220  48.187  53.349
94769W        W86693  27.212  12.778  50.166
94770W        W86694   8.267  45.692  53.336
94771W        W86695  44.194  16.728  53.331
94772W        W86696  18.731  43.723  50.607
94773W        W86697  44.694   3.289  51.068
94774W        W86698  31.717  30.702  53.799
94775W        W86699  29.228  48.189  51.960
94776W        W86700  26.246  27.730  49.683
94777W        W86701  12.779  47.692  50.606
94778W        W86702  18.250  29.716  51.078
94779W        W86703  39.717  30.248  50.141
94780W        W86704  37.234   1.260  50.606
94781W        W86705  28.241   9.765  50.587
94782W        W86706   3.266   7.273  50.142
94783W        W86707  24.718  19.758  51.494
94784W        W86708   6.771  32.723  51.045
94785W        W86709  27.724  42.204  51.049
94786W        W86710  10.275  43.196  53.341
94787W        W86711  22.255  21.739  51.525
94788W        W86712  20.236  44.690  52.873
94789W        W86713  45.197  41.219  50.612
94790W        W86714  26.232   0.756  51.974
94791W        W86715  28.735  21.764  50.127
94792W        W86716   1.293  14.766  53.809
94793W        W86717  35.703   2.773  53.323
94794W        W86718  19.755  22.220  51.057
94795W        W86719  13.747  44.220  53.339
94796W        W86720  13.749  15.268  52.425
94797W        W86721  29.230  39.718  50.134
94798W        W86722  39.203  33.721  50.143
94799W        W86723  43.694  42.684  52.421
94800W        W86724  39.216  37.694  51.977
94801W        W86725  39.700  11.764  50.587
94802W        W86726  12.238  42.198  52.864
94803W        W86727  42.216  34.720  53.347
94804W        W86728  42.210  38.196  51.059
94805W        W86729  31.715  33.209  52.876
94806W        W86730   4.760  33.223  51.496
94807W        W86731  33.205  31.232  50.617
94808W        W86732  12.232  33.724  52.407
94809W        W86733  30.233  15.242  51.521
94810W        W86734  42.226   7.267  52.422
94811W        W86735  34.715  35.697  52.431
94812W        W86736  48.190  17.727  52.406
94813W        W86737  36.229  45.213  49.688
94814W        W86738  45.192  33.731  50.606
94815W        W86739  42.709  10.257  49.670
94816W        W86740  37.732  42.689  49.674
94817W        W86741  34.712  30.724  50.154
94818W        W86742  38.187  11.773  51.991
94819W        W86743   0.290   2.250  53.785
94820W        W86744   7.749  15.270  51.497
94821W        W86745  44.223  17.260  53.808
94822W        W86746   7.276  44.715  50.604
94823W        W86747  20.222  28.253  50.577
94824W        W86748   5.763  34.202  49.692
94825W        W86749  28.209  13.767  52.874
94826W        W86750  25.715  12.742  50.133
94827W        W86751  25.256  30.237  51.058
94828W        W86752  17.759   8.264  50.594
94829W        W86753  39.201  12.262  52.876
94830W        W86754  39.733  10.759  50.579
94831W        W86755   6.780  21.723  51.956
94832W        W86756  14.231  37.703  51.077
94833W        W86757  24.224  27.244  51.497
94834W        W86758  36.196  24.229  53.777
94835W        W86759  38.719  10.239  50.579
94836W        W86760  38.734  13.746  52.437
94837W        W86761   5.747  23.220  49.685
94838W        W86762  12.754  34.733  49.707
94839W        W86763  38.694  10.757  52.888
94840W        W86764  43.711  24.735  50.587
94841W        W86765  26.747  29.738  50.577
94842W        W86766   0.796   5.268  49.669
94843W        W86767  21.215   6.756  51.977
94844W        W86768  25.236   3.277  50.615
94845W        W86769  40.701   7.272  51.077
94846W        W86770  35.726  30.220  51.527
94847W        W86771  12.743   3.772  51.037
94848W        W86772  36.714  22.237  51.528
94849W        W86773  18.222  20.225  49.710
94850W        W86774  28.219  10.775  51.053
94851W        W86775  11.275  19.240  50.583
94852W        W86776  21.739  35.707  52.446
94853W        W86777  46.711  33.232  51.055
94854W        W86778  44.704  42.180  51.518
94855W        W86779  39.213   1.294  52.868
94856W        W86780  40.229   4.262  49.708
94857W        W86781   8.240  47.686  53.803
94858W        W86782   0.294  47.712  53.814
94859W        W86783  40.198   5.272  53.348
94860W        W86784  25.247  23.248  50.586
94861W        W86785  14.745  47.179  51.957
94862W        W86786  23.747  25.222  49.668
94863W        W86787  46.207  17.753  51.076
94864W        W86788   3.788   5.283  52.442
94865W        W86789   0.795  15.248  53.344
94866W        W86790  19.237  10.235  52.404
94867W        W86791  12.264  38.690  49.687
94868W        W86792  38.718  34.216  50.584
94869W        W86793   4.254  34.695  51.522
94870W        W86794  19.733  37.715  52.404
94871W        W86795  47.208  28.724  53.339
94872W        W86796  29.219  42.690  50.145
94873W        W86797  33.734  21.233  49.670
94874W        W86798  30.248  14.239  51.058
94875W        W86799  36.732  13.265  50.124
94876W        W86800   5.280  17.736  52.864
94877W        W86801  31.223   5.788  51.947
94878W        W86802  17.766  45.714  51.496
94879W        W86803   0.754  10.263  52.863
94880W        W86804  38.725  34.708  51.529
94881W        W86805  12.269  29.724  50.124
94882W        W86806  30.232  42.210  53.799
94883W        W86807   5.764  28.236  50.584
94884W        W86808   8.785  41.692  52.895
94885W        W86809   4.789   0.760  52.904
94886W        W86810  44.190  32.742  49.706
94887W        W86811  36.219  40.713  49.691
94888W        W86812  42.230   4.778  51.050
94889W        W86813  48.199  39.729  49.666
94890W        W86814  15.265  29.210  50.164
94891W        W86815  19.234  41.220  53.809
94892W        W86816  33.210  44.679  52.895
94893W        W86817  35.212  46.222  52.862
94894W        W86818  17.271   3.256  53.344
94895W        W86819  34.221   9.759  51.065
94896W        W86820   7.257   8.736  52.900
94897W        W86821  23.241  32.207  51.974
94898W        W86822  23.754   7.281  52.445
94899W        W86823  46.213  12.753  49.699
94900W        W86824  43.224  38.730  50.164
94901W        W86825  43.179  16.771  50.153
94902W        W86826  39.719  26.725  49.689
94903W        W86827   1.781  12.753  53.330
94904W        W86828  33.706  32.725  50.149
94905W        W86829  14.728   6.758  51.499
94906W        W86830  29.722   8.785  51.053
94907W        W86831   5.759  31.703  51.063
94908W        W86832   4.244  43.711  50.600
94909W        W86833  39.225  20.264  51.989
94910W        W86834  35.196  27.236  51.504
94911W        W86835  16.237  14.257  52.444
94912W        W86836  23.718  26.753  53.328
94913W        W86837  26.228  43.688  53.773
94914W        W86838  42.195  14.753  51.500
94915W        W86839  22.247  32.219  50.605
94916W        W86840  19.251  41.698  50.584
94917W        W86841  17.737  12.275  53.787
94918W        W86842  25.242  26.242  51.975
94919W        W86843   0.750  42.679  51.067
94920W        W86844  44.697  35.193  52.419
94921W        W86845  47.180  14.753  50.582
94922W        W86846  32.723  12.743  53.776
94923W        W86847  10.761  26.752  51.992
94924W        W86848  42.185  39.201  50.135
94925W        W86849  19.752  33.238  53.354
94926W        W86850  20.243  42.685  51.053
94927W        W86851  38.715  40.704  51.492
94928W        W86852  16.235  31.215  51.504
94929W        W86853  14.729  28.209  52.869
94930W        W86854   0.256  14.728  50.160
94931W        W86855  16.756  11.234  53.799
94932W        W86856  40.712  12.238  51.531
94933W        W86857   8.773   4.775  53.326
94934W        W86858   9.256  46.178  53.809
94935W        W86859  41.208  15.267  51.980
94936W        W86860  45.180  19.724  53.789
94937W        W86861  39.704  29.227  52.892
94938W        W86862  26.718  38.208  50.158
94939W        W86863  13.246  30.226  49.680
94940W        W86864  40.706  41.719  52.441
94941W        W86865  38.231  48.218  50.594
94942W        W86866   3.781  45.713  51.967
94943W        W86867  27.724  14.232  50.613
94944W        W86868  47.208   0.796  49.697
94945W        W86869  28.718  43.214  51.956
94946W        W86870  45.698  31.221  50.619
94947W        W86871   7.273  26.249  50.156
94948W        W86872  40.687  11.263  50.590
94949W        W86873  21.736  18.759  49.682
94950W        W86874  11.779  12.259  49.700
94951W        W86875  37.227   9.756  50.595
94952W        W86876   9.749  15.744  51.526
94953W        W86877  27.241   7.767  52.865
94954W        W86878  39.700  33.206  50.581
94955W        W86879   6.786  37.217  49.678
94956W        W86880   1.749  47.177  51.965
94957W        W86881  45.681  48.211  52.409
94958W        W86882  20.742  20.757  52.886
94959W        W86883  29.238  17.252  51.961
94960W        W86884  25.244  26.231  51.076
94961W        W86885  11.762   7.278  50.121
94962W        W86886  28.730  31.231  52.905
94963W        W86887   4.269  14.228  53.322
94964W        W86888  38.216  38.693  52.415
94965W        W86889  32.705  35.723  50.585
94966W        W86890   6.250  47.180  51.063
94967W        W86891  46.219  19.733  49.703
94968W        W86892   9.283   9.260  52.895
94969W        W86893  25.753  16.251  51.520
94970W        W86894  14.741  17.236  49.696
94971W        W86895  25.223  15.241  52.892
94972W        W86896  23.245  42.729  52.403
94973W        W86897   7.783  28.739  50.588
94974W        W86898  18.725   2.276  52.419
94975W        W86899  18.223   6.777  53.793
94976W        W86900   7.759  44.183  51.075
94977W        W86901  15.235  41.228  51.530
94978W        W86902  37.207   7.787  52.901
94979W        W86903  15.259   4.775  51.509
94980W        W86904  16.765  23.218  51.535
94981W        W86905  17.263  37.219  49.689
94982W        W86906   6.754  19.231  53.341
94983W        W86907  40.222  36.237  50.601
94984W        W86908  30.214  20.748  50.155
94985W        W86909  34.217  29.741  53.790
94986W        W86910  23.747  28.234  50.583
94987W        W86911  18.232  26.221  51.516
94988W        W86912   0.759  31.204  52.861
94989W        W86913   0.761   9.757  51.514
94990W        W86914  36.736  42.223  49.697
94991W        W86915  14.755  28.218  53.360
94992W        W86916  35.242  32.205  52.894
94993W        W86917  27.219   5.246  53.337
94994W        W86918  17.721  26.239  51.070
94995W        W86919   3.251   7.258  52.444
94996W        W86920  28.704  16.237  51.061
94997W        W86921  30.222   8.763  49.694
94998W        W86922  10.773  41.688  52.442
94999W        W86923  29.228   8.736  53.795
95000W        W86924   6.752  31.732  53.320
95001W        W86925  30.742  23.257  52.902
95002W        W86926  16.247  36.732  49.703
95003W        W86927  24.254   1.264  50.131
95004W        W86928  13.256  24.723  50.592
95005W        W86929  43.218  15.263  49.708
95006W        W86930  47.718  20.245  53.783
95007W        W86931  15.274   6.258  49.695
95008W        W86932  29.230  14.768  53.325
95009W        W86933  24.249  43.225  53.342
95010W        W86934  43.187   8.763  51.505
95011W        W86935  23.716  35.718  53.317
95012W        W86936  29.228  47.180  52.425
95013W        W86937   7.238  17.767  51.975
95014W        W86938  47.184  39.714  52.868
95015W        W86939  34.723   3.273  50.162
95016W        W86940  33.223  16.232  51.078
95017W        W86941  17.732   7.253  53.783
95018W        W86942  26.248  36.719  52.428
95019W        W86943  41.721  12.266  51.533
95020W        W86944  27.735  38.230  49.709
95021W        W86945  12.251  27.714  53.808
95022W        W86946   1.293  36.237  50.603
95023W        W86947   9.261   7.271  51.048
95024W        W86948  34.243   0.272  53.792
95025W        W86949  39.710  15.234  50.586
95026W        W86950  42.722   6.788  53.808
95027W        W86951  17.747  47.680  52.448
95028W        W86952  25.253  22.242  50.141
95029W        W86953  21.249  18.259  49.683
95030W        W86954  32.718  11.277  52.440
95031W        W86955  18.744  31.728  50.148
95032W        W86956  34.721   3.791  50.582
95033W        W86957  33.244  44.217  51.527
95034W        W86958  14.273  37.189  50.596
95035W        W86959  25.209  17.263  50.618
95036W        W86960  19.755  14.254  49.670
95037W        W86961  35.713  19.235  51.052
95038W        W86962  16.270  47.185  53.799
95039W        W86963  28.237  34.710  51.965
95040W        W86964  11.741  47.209  51.973
95041W        W86965  23.731  12.768  53.812
95042W        W86966   6.744  47.213  51.977
95043W        W86967  40.186  13.271  51.490
95044W        W86968   4.742  26.710  49.694
95045W        W86969  26.721  26.240  50.147
95046W        W86970   6.278  26.248  53.810
95047W        W86971  15.251  35.736  49.669
95048W        W86972   5.746  10.758  50.599
95049W        W86973  22.755  23.222  51.498
95050W        W86974  29.227  30.221  52.873
95051W        W86975  26.229  40.196  52.433
95052W        W86976  43.204  33.198  51.504
95053W        W86977  36.233  21.247  51.953
95054W        W86978  19.731  38.702  53.350
95055W        W86979  12.238  43.719  52.425
95056W        W86980  39.693  41.683  52.420
95057W        W86981  42.192  30.723  52.864
95058W        W86982  46.199  43.197  52.880
95059W        W86983   7.780  39.693  49.703
95060W        W86984  30.204  15.768  49.684
95061W        W86985  13.758   9.779  52.884
95062W        W86986  27.735  22.228  52.887
95063W        W86987  22.761  22.237  51.508
95064W        W86988  13.729  10.276  52.880
95065W        W86989   6.273  36.737  51.527
95066W        W86990  26.233  30.748  51.073
95067W        W86991  19.254  35.225  50.589
95068W        W86992  22.718  35.207  50.138
95069W        W86993  29.723  15.747  49.710
95070W        W86994  45.713  22.242  52.880
95071W        W86995  46.174  19.236  51.042
95072W        W86996  25.228   0.272  50.604
95073W        W86997  40.217  35.716  50.585
95074W        W86998  22.755   9.737  52.439
95075W        W86999   3.751  14.228  50.620
95076W        W87000  26.237   8.266  53.806
95077W        W87001   9.782  28.240  51.985
95078W        W87002  42.696   3.773  50.147
95079W        W87003  28.717  27.714  52.413
95080W        W87004   8.244   4.255  53.327
95081W        W87005  44.698   9.254  52.412
95082W        W87006  39.220   5.276  51.069
95083W        W87007   3.272  12.232  51.521
95084W        W87008  12.735  18.248  52.898
95085W        W87009  13.751  39.194  53.803
95086W        W87010  29.724  30.223  52.406
95087W        W87011   7.285  42.718  50.582
95088W        W87012  26.716   1.796  49.676
95089W        W87013  47.672  44.212  51.034
95090W        W87014  25.238  33.242  53.788
95091W        W87015  23.219  42.182  51.973
95092W        W87016  41.209   0.273  52.899
95093W        W87017  43.696   4.762  50.140
95094W        W87018  36.219  17.768  50.121
95095W        W87019  13.755  34.206  53.339
95096W        W87020   5.279   8.246  50.584
95097W        W87021   3.763  40.701  53.811
95098W        W87022  34.741  47.697  50.622
95099W        W87023  11.751  18.768  50.621
95100W        W87024  13.757  19.262  52.425
95101W        W87025  46.186  34.719  52.437
95102W        W87026  28.204  28.750  51.039
95103W        W87027  26.713  13.238  51.980
95104W        W87028  20.738  31.703  53.790
95105W        W87029  43.683  16.723  51.518
95106W        W87030  23.744  11.747  53.794
95107W        W87031  47.206  44.224  50.613
95108W        W87032  29.722  13.246  52.429
95109W        W87033   1.759  16.227  51.534
95110W        W87034   7.783  24.741  53.351
95111W        W87035  46.189  17.746  52.902
95112W        W87036  17.261   5.286  51.492
95113W        W87037  47.173  25.226  53.326
95114W        W87038  32.702  36.739  52.875
95115W        W87039  39.703  20.253  53.802
95116W        W87040  24.232  33.220  52.875
95117W        W87041  11.279  30.236  51.532
95118W        W87042  26.237  33.741  49.684
95119W        W87043  23.245  34.713  50.606
95120W        W87044  21.729   1.270  51.045
95121W        W87045  13.231   8.272  50.585
95122W        W87046  29.716  13.744  49.691
95123W        W87047  29.204  32.237  51.966
95124W        W87048  42.706  44.701  49.708
95125W        W87049  13.271  43.217  50.621
95126W        W87050  27.239   6.255  52.888
95127W        W87051  40.213  13.744  53.343
95128W        W87052  25.211   6.769  49.669
95129W        W87053   3.792  32.213  51.045
95130W        W87054  24.721  37.220  53.786
95131W        W87055  48.194   9.773  53.800
95132W        W87056  33.198  39.700  50.622
95133W        W87057   2.751  19.737  50.141
95134W        W87058   4.779  39.694  51.959
95135W        W87059  12.232  21.247  49.666
95136W        W87060   5.281  10.282  51.495
95137W        W87061  20.730  18.235  52.416
95138W        W87062  20.248  41.204  52.863
95139W        W87063  40.688  14.264  51.528
95140W        W87064  18.759  41.207  52.866
95141W        W87065  34.732   4.280  50.134
95142W        W87066  47.175  20.264  53.327
95143W        W87067  31.729   4.781  53.346
95144W        W87068  22.760   0.277  51.980
95145W        W87069  23.744  38.221  53.798
95146W        W87070  33.234  28.235  51.043
95147W        W87071  18.741  14.758  53.777
95148W        W87072  38.236   2.767  49.706
95149W        W87073  25.240  38.188  51.051
95150W        W87074  12.256   1.275  49.691
95151W        W87075  28.725  35.237  51.044
95152W        W87076  46.209  39.714  51.050
95153W        W87077   8.252  37.708  51.505
95154W        W87078   7.767  31.723  52.881
95155W        W87079  31.700  18.227  53.802
95156W        W87080  26.722   2.770  53.773
95157W        W87081   5.279  20.740  52.439
95158W        W87082  31.737  32.743  51.959
95159W        W87083  32.727   8.261  52.437
95160W        W87084  23.223   7.758  50.581
95161W        W87085  46.192  32.720  52.405
95162W        W87086  23.745  36.236  52.436
95163W        W87087   2.790   9.763  50.162
95164W        W87088  40.198  10.761  49.686
95165W        W87089   3.271  10.767  52.888
95166W        W87090  14.244  32.737  53.797
95167W        W87091  47.718   1.768  53.328
95168W        W87092  25.239  45.678  49.677
95169W        W87093  12.750  20.221  52.443
95170W        W87094  27.205  39.217  51.965
95171W        W87095  45.676  36.231  50.140
95172W        W87096  47.672  24.213  50.161
95173W        W87097  41.209   9.266  51.061
95174W        W87098   7.752   6.257  51.971
95175W        W87099   1.790  32.245  51.061
95176W        W87100  39.687  25.744  53.351
95177W        W87101  32.724   0.759  52.870
95178W        W87102  27.721  42.230  51.509
95179W        W87103   2.294  34.695  49.707
95180W        W87104  35.196  12.232  51.947
95181W        W87105  15.749  25.236  53.811
95182W        W87106   1.792  15.259  49.702
95183W        W87107  17.737   3.271  49.709
95184W        W87108  38.216  45.207  53.800
95185W        W87109  23.245  11.741  53.788
95186W        W87110  19.718  44.216  51.504
95187W        W87111   1.748  37.197  50.582
95188W        W87112  27.207   9.235  53.351
95189W        W87113  19.225   3.273  53.788
95190W        W87114  40.731  11.254  49.685
95191W        W87115  22.259   3.250  53.786
95192W        W87116  24.237  13.729  52.868
95193W        W87117   3.762  43.182  52.895
95194W        W87118  47.698  21.743  53.787
95195W        W87119  16.255  19.723  52.433
95196W        W87120  25.750  12.254  50.126
95197W        W87121  29.219  30.744  52.407
95198W        W87122  46.183  28.732  53.348
95199W        W87123  47.196   1.794  51.062
95200W        W87124  27.231  46.202  53.350
95201W        W87125  43.725  25.752  52.886
95202W        W87126  37.694   9.277  53.330
95203W        W87127  20.227  33.740  51.036
95204W        W87128   5.785  38.705  50.598
95205W        W87129  14.238  25.253  53.353
95206W        W87130  13.237   3.260  52.891
95207W        W87131  44.187  18.746  53.784
95208W        W87132  17.762   0.767  50.606
95209W        W87133  20.257  22.220  53.346
95210W        W87134  42.199  47.209  51.065
95211W        W87135  24.254  41.698  50.599
95212W        W87136  16.244  23.221  53.324
95213W        W87137  12.234  20.266  52.432
95214W        W87138  40.227  27.240  52.422
95215W        W87139  24.231  30.222  52.445
95216W        W87140  11.269  18.264  53.812
95217W        W87141   7.750   1.249  50.586
95218W        W87142  31.212  33.198  49.667
95219W        W87143   4.291  12.237  52.446
95220W        W87144   1.754  24.728  53.351
95221W        W87145  47.701  16.271  51.972
95222W        W87146  31.707  15.227  50.158
95223W        W87147   3.755   6.249  51.516
95224W        W87148  41.713   1.766  50.126
95225W        W87149   8.258  31.733  50.612
95226W        W87150  46.200  20.749  53.792
95227W        W87151  10.235   5.270  53.778
95228W        W87152  17.261  45.718  50.613
95229W        W87153  31.706   5.751  53.805
95230W        W87154  33.744  12.247  50.609
95231W        W87155  20.228  29.220  49.680
95232W        W87156   9.780  41.216  50.137
95233W        W87157  41.229  46.674  50.128
95234W        W87158   6.248  39.711  51.952
95235W        W87159  21.216  43.678  52.407
95236W        W87160  35.739   8.283  50.598
95237W        W87161  33.702  43.701  52.441
95238W        W87162  30.746  28.223  53.775
95239W        W87163  31.230  29.243  52.880
95240W        W87164  25.224  35.702  51.518
95241W        W87165   7.239  43.716  53.799
95242W        W87166  19.232  15.241  51.512
95243W        W87167  28.750  45.177  53.348
95244W        W87168  14.735  20.720  50.593
95245W        W87169  22.743  28.746  52.410
95246W        W87170  42.686  10.758  52.861
95247W        W87171  14.767  23.752  50.599
95248W        W87172  34.735  47.184  53.342
95249W        W87173  32.714  11.253  52.880
95250W        W87174   3.782  36.194  52.405
95251W        W87175  11.759   7.750  53.814
95252W        W87176  13.258  32.742  51.063
95253W        W87177  25.234  11.738  51.042
95254W        W87178  30.233  12.736  51.948
95255W        W87179  36.204  15.271  51.965
95256W        W87180  30.734  17.733  51.963
95257W        W87181  20.244  47.186  49.682
95258W        W87182  33.241  37.730  50.597
95259W        W87183  21.243  13.761  51.065
95260W        W87184  20.754  48.180  51.952
95261W        W87185  29.212   7.781  49.682
95262W        W87186  12.734   0.282  51.038
95263W        W87187  17.749  23.730  52.873
95264W        W87188  27.221  11.280  49.691
95265W        W87189  16.262  15.264  52.404
95266W        W87190  25.717  11.240  51.047
95267W        W87191  41.228  21.717  53.358
95268W        W87192  30.227   3.288  51.970
95269W        W87193  32.231  31.226  50.587
95270W        W87194   7.768  35.193  50.621
95271W        W87195  19.736  36.695  50.157
95272W        W87196  38.199  43.219  49.692
95273W        W87197   3.776  10.250  51.079
95274W        W87198   1.271   9.781  53.336
95275W        W87199  20.747  15.743  53.318
95276W        W87200  20.763  16.245  53.809
95277W        W87201   3.246  37.209  50.586
95278W        W87202  38.718  11.774  51.076
95279W        W87203  14.266  31.223  52.421
95280W        W87204   0.797  12.731  49.705
95281W        W87205  42.218  26.242  52.892
95282W        W87206  13.765  45.705  52.442
95283W        W87207  35.704  44.699  52.440
95284W        W87208  47.678  14.752  53.335
95285W        W87209   7.745  28.710  50.145
95286W        W87210  18.727  22.222  51.989
95287W        W87211  39.226  23.737  52.407
95288W        W87212  26.238  29.738  50.592
95289W        W87213  16.247  37.196  51.499
95290W        W87214   4.258  42.682  50.617
95291W        W87215  18.252  17.768  51.990
95292W        W87216  37.202   8.284  50.130
95293W        W87217  41.702  46.190  49.697
95294W        W87218  14.761  14.259  51.494
95295W        W87219  44.194  17.241  50.162
95296W        W87220   2.776  13.772  50.134
95297W        W87221  20.221   3.283  52.886
95298W        W87222  28.232  25.239  52.886
95299W        W87223  13.229  13.742  52.903
95300W        W87224  17.247   1.259  53.807
95301W        W87225  14.240  35.237  52.889
95302W        W87226  33.707  38.225  51.963
95303W        W87227  33.719  38.232  51.491
95304W        W87228  14.771  12.744  51.953
95305W        W87229  40.726   5.788  51.947
95306W        W87230   2.261  10.256  51.959
95307W        W87231  18.246  40.200  51.526
95308W        W87232  33.713  28.707  52.442
95309W        W87233  16.265  19.737  50.584
95310W        W87234   3.287  11.750  51.063
95311W        W87235  29.731  29.737  53.330
95312W        W87236  42.186  42.693  50.604
95313W        W87237   6.786  46.200  52.429
95314W        W87238  33.709  13.244  53.779
95315W        W87239   4.243  33.715  51.527
95316W        W87240  13.278  21.720  52.423
95317W        W87241  26.707  26.209  50.611
95318W        W87242   2.249   2.272  49.671
95319W        W87243  27.740  25.733  52.865
95320W        W87244   4.273  40.694  52.425
95321W        W87245   8.745  13.755  50.588
95322W        W87246  42.182  39.228  52.869
95323W        W87247   9.738  36.239  50.164
95324W        W87248  46.686  18.231  53.797
95325W        W87249  46.202  17.261  51.056
95326W        W87250  48.190  32.213  50.159
95327W        W87251  37.202  46.712  49.670
95328W        W87252  31.735  17.735  50.138
95329W        W87253  40.712  22.745  52.405
95330W        W87254  48.216  32.745  52.437
95331W        W87255  33.197  27.731  52.411
95332W        W87256  47.172  42.723  52.443
95333W        W87257  46.698  23.746  51.063
95334W        W87258   6.772   7.285  49.708
95335W        W87259  33.724   3.272  51.991
95336W        W87260  36.702  44.210  53.331
95337W        W87261  29.712  10.779  51.078
95338W        W87262  36.217  13.237  51.992
95339W        W87263   9.743  46.682  52.424
95340W        W87264  45.692  20.245  51.056
95341W        W87265  10.255  45.711  50.588
95342W        W87266  40.211  40.696  50.136
95343W        W87267   3.758   5.263  51.072
95344W        W87268  42.182   4.283  51.060
95345W        W87269  24.212   5.262  51.034
95346W        W87270  36.704  10.767  50.163
95347W        W87271   5.786  20.727  53.355
95348W        W87272  29.204  15.234  50.606
95349W        W87273  24.724  43.713  49.699
95350W        W87274  11.755  25.210  50.591
95351W        W87275  25.742  27.221  50.580
95352W        W87276  18.259  22.739  49.670
95353W        W87277   1.761  26.748  53.799
95354W        W87278  16.754  22.221  52.865
95355W        W87279  34.241   1.765  52.875
95356W        W87280  12.250  36.193  51.985
95357W        W87281  24.231  14.238  50.163
95358W        W87282   4.758  34.707  53.355
95359W        W87283  22.734  21.244  50.160
95360W        W87284   6.276  16.257  51.496
95361W        W87285  14.240  30.711  50.597
95362W        W87286  41.727  19.720  53.354
95363W        W87287  47.699  39.220  53.808
95364W        W87288  15.760  30.230  52.883
95365W        W87289  25.727  15.725  53.344
95366W        W87290   5.784  19.735  53.817
95367W        W87291  27.239   9.246  52.441
95368W        W87292  27.739   0.280  52.424
95369W        W87293  38.226  28.727  49.678
95370W        W87294  16.760  41.703  51.495
95371W        W87295  28.735  41.722  53.813
95372W        W87296  25.724  14.770  50.615
95373W        W87297  32.728  11.274  51.967
95374W        W87298  20.237  19.757  50.597
95375W        W87299  36.716  11.257  53.351
95376W        W87300   6.756  41.220  53.778
95377W        W87301  12.236  23.725  51.527
95378W        W87302  10.762  36.222  53.338
95379W        W87303  37.194  31.738  51.047
95380W        W87304  11.737  40.692  51.059
95381W        W87305  19.747  46.702  51.521
95382W        W87306  32.707  47.186  53.794
95383W        W87307  37.219   3.745  49.666
95384W        W87308  31.230  31.721  53.328
95385W        W87309   7.768  10.734  52.431
95386W        W87310   0.766  35.200  52.897
95387W        W87311  35.206  23.250  49.679
95388W        W87312   0.251  45.689  53.804
95389W        W87313  25.221  35.228  51.970
95390W        W87314   9.251   9.748  49.678
95391W        W87315  42.229   5.750  50.136
95392W        W87316  37.699   9.239  51.989
95393W        W87317  20.218  26.734  52.421
95394W        W87318  38.734  47.711  51.952
95395W        W87319  23.716  11.738  50.622
95396W        W87320  16.761  25.743  49.704
95397W        W87321  46.206   1.297  50.152
95398W        W87322   3.791  46.187  51.053
95399W        W87323  12.259  19.239  51.967
95400W        W87324  32.203  24.721  52.897
95401W        W87325  11.733   4.772  50.154
95402W        W87326  36.209  33.200  53.779
95403W        W87327  40.717   1.781  51.511
95404W        W87328  16.743  20.222  50.588
95405W        W87329  36.728   8.748  51.961
95406W        W87330  34.197  47.207  52.435
95407W        W87331   7.766   6.786  50.619
95408W        W87332  16.725  30.226  50.609
95409W        W87333   3.770  20.764  53.801
95410W        W87334  47.719  44.195  51.983
95411W        W87335   3.268   0.772  52.871
95412W        W87336  26.710  32.205  53.805
95413W        W87337  39.703  41.201  50.600
95414W        W87338  34.222  44.697  50.607
95415W        W87339  28.207  26.746  52.874
95416W        W87340  21.728  46.210  53.344
95417W        W87341  13.261  46.201  53.346
95418W        W87342  20.726  16.259  52.873
95419W        W87343   3.271  27.715  52.880
95420W        W87344   6.748  35.710  51.040
95421W        W87345  27.720  45.213  50.600
95422W        W87346  11.770  44.200  51.497
95423W        W87347   3.766  48.206  53.776
95424W        W87348  46.707  24.249  52.902
95425W        W87349  31.213   6.762  51.533
95426W        W87350  12.774  23.234  53.788
95427W        W87351  23.249  16.726  51.039
95428W        W87352  35.693   0.297  51.059
95429W        W87353  20.736  28.252  49.673
95430W        W87354  25.730  46.216  53.813
95431W        W87355  24.730  10.779  53.799
95432W        W87356  15.269  12.745  52.428
95433W        W87357   6.739  36.691  50.595
95434W        W87358   5.775  35.694  52.427
95435W        W87359  15.273  47.701  52.873
95436W        W87360   6.279  17.764  50.603
95437W        W87361  11.264  30.734  51.951
95438W        W87362  25.231  31.238  52.438
95439W        W87363  37.213  31.237  49.686
95440W        W87364  42.204   8.258  51.973
95441W        W87365  18.228  34.238  51.079
95442W        W87366  12.259  43.228  53.322
95443W        W87367  22.746   3.767  49.689
95444W        W87368  29.727  30.713  53.341
95445W        W87369   2.780  35.712  50.595
95446W        W87370  36.239  34.231  51.050
95447W        W87371  33.728  39.213  52.447
95448W        W87372  43.721  33.237  51.532
95449W        W87373  30.710   4.758  50.132
95450W        W87374   1.749  48.200  51.952
95451W        W87375   9.761  14.749  51.531
95452W        W87376   7.241   1.757  50.583
95453W        W87377  14.266  44.198  51.985
95454W        W87378  16.236   5.761  49.700
95455W        W87379  23.243  25.228  52.413
95456W        W87380   3.285  11.779  52.447
95457W        W87381  48.195  48.211  50.612
95458W        W87382  41.231  33.729  49.693
95459W        W87383   3.280  39.221  51.041
95460W        W87384   3.744  34.703  50.587
95461W        W87385  13.767  46.196  50.124
95462W        W87386  25.738  33.734  49.701
95463W        W87387  44.217  43.211  49.674
95464W        W87388  23.242  24.216  53.795
95465W        W87389  36.690   7.285  51.491
95466W        W87390   5.246   9.273  49.707
95467W        W87391  13.248   9.743  49.671
95468W        W87392  45.703  30.719  50.155
95469W        W87393   0.795   3.788  51.036
95470W        W87394  28.249  40.717  52.872
95471W        W87395  30.737  35.699  52.433
95472W        W87396  31.707  32.234  52.431
95473W        W87397  12.761  45.701  49.696
95474W        W87398  11.753  30.218  52.435
95475W        W87399  22.233  34.225  53.792
95476W        W87400  35.198  37.202  50.611
95477W        W87401  12.262  47.715  50.590
95478W        W87402  11.235  22.261  53.811
95479W        W87403  33.741  21.248  53.340
95480W        W87404  31.702   6.245  52.898
95481W        W87405  24.218  20.243  50.123
95482W        W87406  19.735  20.762  50.157
95483W        W87407  15.262  11.757  51.045
95484W        W87408  19.237  33.702  49.671
95485W        W87409   7.278  34.694  49.695
95486W        W87410  34.243  39.713  53.800
95487W        W87411   9.258  25.737  53.320
95488W        W87412   7.276  25.736  53.317
95489W        W87413   1.260  28.713  51.973
95490W        W87414   5.291  20.717  52.879
95491W        W87415  35.235  39.702  52.445
95492W        W87416  17.766  34.705  51.492
95493W        W87417  26.210   6.762  51.968
95494W        W87418  24.750  19.733  51.074
95495W        W87419  40.228  31.240  53.774
95496W        W87420   7.280  46.683  52.890
95497W        W87421  23.757  38.711  51.518
95498W        W87422  44.677  29.243  52.426
95499W        W87423  29.717  41.695  51.064
95500W        W87424  47.182  35.209  50.156
95501W        W87425  14.745  29.729  51.950
95502W        W87426  47.710  15.244  51.494
95503W        W87427  43.199  14.728  53.786
95504W        W87428   7.277  27.235  51.989
95505W        W87429  47.188   7.770  51.036
95506W        W87430  29.206  27.205  51.491
95507W        W87431   6.287  26.227  49.673
95508W        W87432   6.778  20.262  49.669
95509W        W87433   8.270  32.244  51.078
95510W        W87434  14.744  25.730  53.340
95511W        W87435  15.264  37.705  50.602
95512W        W87436   6.288  12.770  50.593
95513W        W87437  37.191  37.707  53.776
95514W        W87438  37.217   2.274  53.772
95515W        W87439   6.278  39.225  51.055
95516W        W87440  45.221  29.247  49.683
95517W        W87441  38.204   5.267  52.880
95518W        W87442  19.237  10.740  51.071
95519W        W87443  43.205  41.722  53.324
95520W        W87444  10.759  40.717  51.051
95521W        W87445  31.218  31.701  51.973
95522W        W87446  22.255   7.773  52.890
95523W        W87447   2.285  20.724  51.536
95524W        W87448   9.766  29.706  50.162
95525W        W87449  14.755  43.724  53.780
95526W        W87450  42.722   4.253  52.884
95527W        W87451   4.751  23.746  53.792
95528W        W87452  15.733  21.260  49.669
95529W        W87453  35.229  45.181  50.127
95530W        W87454  42.229  22.248  52.879
95531W        W87455  24.724  18.750  51.514
95532W        W87456  15.239  43.204  52.409
95533W        W87457  34.210   2.289  50.121
95534W        W87458  13.749  15.757  50.595
95535W        W87459   2.780  38.214  50.586
95536W        W87460  19.257  44.718  52.418
95537W        W87461  17.755  43.187  51.978
95538W        W87462  42.697  45.188  52.417
95539W        W87463  27.730   9.274  51.035
95540W        W87464  43.685  19.759  52.885
95541W        W87465   3.258  35.218  51.511
95542W        W87466  35.732  14.756  50.136
95543W        W87467  46.177  38.734  52.866
95544W        W87468  21.715  38.733  51.977
95545W        W87469  29.708  28.721  53.805
95546W        W87470  38.699  24.722  49.667
95547W        W87471  35.725  34.729  53.357
95548W        W87472  30.223   0.259  49.673
95549W        W87473   8.242  14.253  51.957
95550W        W87474  12.268  26.220  53.772
95551W        W87475  24.241  33.196  50.159
95552W        W87476  42.223   7.759  50.130
95553W        W87477  13.265  29.206  53.775
95554W        W87478  35.739  14.238  53.330
95555W        W87479  28.250  32.738  53.328
95556W        W87480  23.228  25.732  53.319
95557W        W87481  33.702  12.757  52.897
95558W        W87482  35.234  17.249  50.149
95559W        W87483  26.714  21.724  51.075
95560W        W87484  29.704  25.726  51.952
95561W        W87485  14.747  37.227  53.801
95562W        W87486  37.236  12.249  53.334
95563W        W87487  30.247  18.751  53.328
95564W        W87488   2.762  26.725  50.591
95565W        W87489  16.765  26.221  51.035
95566W        W87490  45.695   5.282  51.073
95567W        W87491  38.191  29.740  50.147
95568W        W87492  20.227  30.228  52.432
95569W        W87493  17.728  43.220  50.581
95570W        W87494  39.732  14.759  53.346
95571W        W87495   1.786  33.699  51.496
95572W        W87496   0.283  37.234  49.689
95573W        W87497  10.736   3.745  52.865
95574W        W87498  44.183  40.733  51.953
95575W        W87499  27.241   9.775  52.860
95576W        W87500   8.264  13.735  50.132
95577W        W87501  46.189   7.263  53.815
95578W        W87502  10.759  46.220  52.422
95579W        W87503   8.268  43.705  49.706
95580W        W87504  24.722  35.722  53.338
95581W        W87505   7.241  13.270  51.495
95582W        W87506  38.231  23.746  51.964
95583W        W87507  19.263  42.181  50.587
95584W        W87508  38.219  15.244  52.414
95585W        W87509  11.249  28.207  50.582
95586W        W87510  41.705   6.776  52.870
95587W        W87511  30.711   2.273  50.583
95588W        W87512  27.744  27.206  52.881
95589W        W87513  20.738  41.715  53.331
95590W        W87514  44.706  13.763  53.791
95591W        W87515  28.743  11.732  51.043
95592W        W87516   7.783  46.683  50.147
95593W        W87517  46.711  17.228  50.588
95594W        W87518  27.234  32.706  53.806
95595W        W87519   1.754   7.244  53.789
95596W        W87520  38.216  31.244  49.667
95597W        W87521  37.211   7.269  51.491
95598W        W87522  17.229  30.714  51.517
95599W        W87523   4.279  25.749  50.618
95600W        W87524   8.239  32.710  53.346
95601W        W87525  17.253   9.241  51.530
95602W        W87526  28.726  44.694  52.893
95603W        W87527  36.208   0.754  53.350
95604W        W87528   5.752   2.775  52.860
95605W        W87529  21.231  45.717  51.970
95606W        W87530  29.250   4.754  53.780
95607W        W87531   7.757  15.236  50.582
95608W        W87532   3.788  29.736  53.319
95609W        W87533   8.758  12.265  52.440
95610W        W87534  17.750  31.203  51.528
95611W        W87535  24.743  30.710  50.604
95612W        W87536   1.265  40.711  51.034
95613W        W87537  34.213   9.751  51.502
95614W        W87538  17.736  42.709  50.596
95615W        W87539  29.235  23.717  50.166
95616W        W87540   7.747  48.171  53.332
95617W        W87541  34.203  15.772  50.584
95618W        W87542  27.225  38.193  52.403
95619W        W87543  24.258  43.718  49.679
95620W        W87544   5.255  35.730  51.053
95621W        W87545  29.223  16.240  53.337
95622W        W87546  44.701   6.286  51.067
95623W        W87547  26.242  37.728  53.338
95624W        W87548  29.222  37.226  53.342
95625W        W87549  42.684  13.277  51.063
95626W        W87550   3.793  15.773  49.683
95627W        W87551  47.211  36.201  53.807
95628W        W87552  12.732  35.217  51.519
95629W        W87553  26.715  40.692  50.165
95630W        W87554  48.186  46.181  51.948
95631W        W87555  19.759   5.244  51.046
95632W        W87556  23.239   8.239  53.341
95633W        W87557  10.265   6.776  50.618
95634W        W87558  41.195  14.732  52.440
95635W        W87559  43.204  46.709  51.047
95636W        W87560  42.222   0.758  52.860
95637W        W87561  26.229  23.731  52.903
95638W        W87562  42.698  36.207  51.950
95639W        W87563  23.716  48.200  53.335
95640W        W87564  32.711  34.207  49.684
95641W        W87565  25.708  31.244  49.675
95642W        W87566  26.724   1.287  53.812
95643W        W87567  13.256  43.708  51.068
95644W        W87568   2.771   4.244  51.065
95645W        W87569  46.689  39.221  52.441
95646W        W87570  19.257   1.758  52.441
95647W        W87571  10.760   6.282  53.792
95648W        W87572  22.251   1.754  53.337
95649W        W87573  33.244  48.177  51.074
95650W        W87574   3.285   9.767  50.159
95651W        W87575  46.194   4.780  50.609
95652W        W87576  10.745  33.737  50.601
95653W        W87577   3.286  35.733  49.665
95654W        W87578   0.767  28.221  50.147
95655W        W87579  10.774  11.744  50.137
95656W        W87580  16.759  48.206  51.044
95657W        W87581  23.233  14.258  51.964
95658W        W87582  36.240  38.196  51.510
95659W        W87583  44.225  28.209  52.871
95660W        W87584  12.758  22.754  50.620
95661W        W87585  39.226  29.237  50.159
95662W        W87586  45.214  45.217  50.618
95663W        W87587  47.680  29.728  51.034
95664W        W87588  11.232   9.279  51.060
95665W        W87589  28.703  43.690  51.037
95666W        W87590  48.194  33.204  52.414
95667W        W87591  27.736  29.715  52.440
95668W        W87592  19.734   5.243  53.779
95669W        W87593  38.688  41.719  51.041
95670W        W87594  25.751   7.765  53.317
95671W        W87595  39.187  35.234  52.862
95672W        W87596   7.749  27.747  50.153
95673W        W87597  20.240  10.752  53.793
95674W        W87598  35.731  28.750  49.673
95675W        W87599  37.690  44.209  50.129
95676W        W87600  17.238  22.250  50.587
95677W        W87601  27.219   0.777  51.493
95678W        W87602  10.244  13.770  51.985
95679W        W87603  37.698  32.241  52.406
95680W        W87604  24.720  45.682  50.614
95681W        W87605  39.229  36.718  52.880
95682W        W87606  46.175  39.715  53.772
95683W        W87607  41.717  26.250  51.497
95684W        W87608  18.222  37.721  51.067
95685W        W87609   4.765  20.722  51.976
95686W        W87610   8.764  36.221  51.535
95687W        W87611  24.254   9.281  53.776
95688W        W87612   6.268   4.273  52.891
95689W        W87613  17.743  28.210  52.864
95690W        W87614  32.702  47.192  51.493
95691W        W87615  16.258  20.716  51.076
95692W        W87616   6.272  40.205  50.127
95693W        W87617  46.176  11.778  51.040
95694W        W87618  34.742  26.218  52.448
95695W        W87619  13.769  48.195  51.059
95696W        W87620  11.261  21.720  49.671
95697W        W87621  20.737   1.265  52.421
95698W        W87622  38.216  22.725  49.667
95699W        W87623  32.727  39.193  52.427
95700W        W87624  17.264  11.255  49.695
95701W        W87625  17.254  28.239  49.665
95702W        W87626  17.232  12.759  50.122
95703W        W87627  12.768  27.248  51.517
95704W        W87628  21.220  37.228  52.409
95705W        W87629  37.212  36.215  50.162
95706W        W87630   2.272  47.209  53.792
95707W        W87631  19.760   1.784  51.971
95708W        W87632  35.697   2.793  53.809
95709W        W87633  17.255  35.215  51.958
95710W        W87634  14.751  18.265  49.703
95711W        W87635   9.754  36.725  50.127
95712W        W87636  28.232  47.709  53.803
95713W        W87637  35.199  43.704  52.414
95714W        W87638  19.728  36.706  50.621
95715W        W87639  19.245  40.685  49.695
95716W        W87640  46.716  22.217  49.676
95717W        W87641  38.736  44.205  51.965
95718W        W87642  17.229  21.224  51.977
95719W        W87643  23.225  22.749  51.522
95720W        W87644   7.267   1.296  53.354
95721W        W87645  12.256  24.243  51.064
95722W        W87646   0.255  11.280  52.416
95723W        W87647  22.254  19.242  51.981
95724W        W87648  28.711  38.691  51.958
95725W        W87649  10.262  16.260  50.579
95726W        W87650   1.293  39.210  50.137
95727W        W87651  18.726  37.735  53.814
95728W        W87652  15.271  22.227  51.061
95729W        W87653  43.198   1.248  53.797
95730W        W87654  33.705  31.719  53.794
95731W        W87655  13.266  12.230  53.352
95732W        W87656  14.259  10.744  51.072
95733W        W87657  23.248  15.739  53.335
95734W        W87658  41.725   3.790  53.360
95735W        W87659   6.242  26.725  51.983
95736W        W87660  15.733  26.215  50.611
95737W        W87661  33.238  29.248  51.532
95738W        W87662   2.255  31.742  51.502
95739W        W87663  24.224  15.245  50.612
95740W        W87664  35.697  37.197  51.499
95741W        W87665  46.679  37.696  52.442
95742W        W87666   9.239  33.722  49.709
95743W        W87667  20.757  19.740  51.990
95744W        W87668  37.228  36.206  50.586
95745W        W87669  14.232  14.255  51.521
95746W        W87670   2.265   5.256  52.874
95747W        W87671   6.262  26.256  50.601
95748W        W87672  37.219  45.698  50.600
95749W        W87673   2.254  12.276  52.891
95750W        W87674  28.205  28.734  51.509
95751W        W87675  24.749  37.704  51.493
95752W        W87676   6.761  15.240  49.686
95753W        W87677  34.712  37.691  52.860
95754W        W87678  46.714  17.731  50.130
95755W        W87679  24.711  20.254  51.491
95756W        W87680   9.779   0.290  49.679
95757W        W87681  14.774   4.279  49.704
95758W        W87682  17.230   5.250  52.863
95759W        W87683  18.721  13.241  51.511
95760W        W87684  27.214   0.257  49.699
95761W        W87685   4.773  22.757  51.959
95762W        W87686  38.705  38.222  50.148
95763W        W87687  36.695  36.228  53.330
95764W        W87688  42.724   6.754  51.053
95765W        W87689   2.788   9.279  52.436
95766W        W87690  27.725   1.781  50.144
95767W        W87691  28.209  14.766  52.881
95768W        W87692  47.212   3.293  51.532
95769W        W87693   3.259   3.776  50.581
95770W        W87694  22.260   6.259  53.776
95771W        W87695  22.218   4.289  52.885
95772W        W87696   9.744  32.198  51.045
95773W        W87697  29.724  44.216  49.680
95774W        W87698  40.714  30.243  50.612
95775W        W87699   7.280  21.760  50.606
95776W        W87700   2.754   6.279  50.144
95777W        W87701  48.179  15.234  51.064
95778W        W87702  24.758  13.769  53.320
95779W        W87703  10.259  44.703  53.344
95780W        W87704   7.261  31.709  53.316
95781W        W87705  20.725  38.205  50.607
95782W        W87706  24.722  35.692  49.696
95783W        W87707  21.758  41.225  50.587
95784W        W87708   0.273  24.242  50.166
95785W        W87709  23.720   3.754  53.775
95786W        W87710  16.242  20.764  51.522
95787W        W87711  35.222  41.216  50.600
95788W        W87712  24.737  33.214  53.776
95789W        W87713   3.745  44.691  51.972
95790W        W87714   3.286   0.752  51.516
95791W        W87715  34.239  16.743  51.965
95792W        W87716  35.703  31.741  52.900
95793W        W87717  24.721  17.234  52.429
95794W        W87718  12.241  23.737  53.321
95795W        W87719  31.226  39.230  51.533
95796W        W87720  22.734  15.267  53.791
95797W        W87721  48.188   3.276  50.147
95798W        W87722   2.282  46.205  49.704
95799W        W87723  41.230  13.772  51.047
95800W        W87724  31.707  24.223  53.320
95801W        W87725  41.226  17.236  51.992
95802W        W87726  11.762  32.746  51.963
95803W        W87727  30.713   1.764  51.983
95804W        W87728  41.718  19.244  51.073
95805W        W87729   8.752  34.211  50.607
95806W        W87730  32.199   8.749  50.132
95807W        W87731  45.199   3.294  50.152
95808W        W87732   4.775  34.693  49.699
95809W        W87733  36.703  34.205  53.773
95810W        W87734  14.764  39.216  51.047
95811W        W87735   4.274   6.248  49.701
95812W        W87736  20.256  11.759  52.424
95813W        W87737  15.251  14.732  50.159
95814W        W87738  36.721  32.215  51.986
95815W        W87739   7.251   1.257  51.502
95816W        W87740  22.255  45.703  53.318
95817W        W87741  15.773  44.709  52.433
95818W        W87742  12.773  20.245  51.039
95819W        W87743  25.254  31.230  51.068
95820W        W87744   6.763  26.751  50.126
95821W        W87745  28.226  20.749  50.585
95822W        W87746  46.199  48.205  53.341
95823W        W87747  45.686  15.254  50.123
95824W        W87748   1.294  34.236  50.616
95825W        W87749  19.720  30.731  53.347
95826W        W87750   7.283  14.247  50.151
95827W        W87751   7.276  35.721  49.710
95828W        W87752  39.702  22.240  51.521
95829W        W87753   1.782  31.733  52.896
95830W        W87754  17.751  44.710  50.604
95831W        W87755   4.274  47.212  53.326
95832W        W87756   8.750  35.192  51.529
95833W        W87757  38.215   6.739  50.128
95834W        W87758  37.222   2.295  53.353
95835W        W87759  39.700  24.751  53.325
95836W        W87760  30.215  48.174  49.696
95837W        W87761  32.719  41.200  49.705
95838W        W87762  26.719  16.769  51.519
95839W        W87763   7.258  38.714  53.356
95840W        W87764   2.274   1.261  52.898
95841W        W87765  11.261  23.235  51.964
95842W        W87766  36.692  21.264  53.795
95843W        W87767  35.196  39.187  50.591
95844W        W87768  34.203  37.694  50.622
95845W        W87769   0.770  37.691  49.684
95846W        W87770  46.703  38.729  52.447
95847W        W87771   4.762  26.710  53.349
95848W        W87772  12.738  19.722  52.904
95849W        W87773  31.743  38.721  50.592
95850W        W87774  26.720  10.753  51.037
95851W        W87775  36.215  27.741  52.879
95852W        W87776   4.260  27.748  50.589
95853W        W87777  38.209  20.722  50.162
95854W        W87778  18.720   3.752  52.406
95855W        W87779   5.256  41.710  51.072
95856W        W87780  38.716  35.196  50.579
95857W        W87781  42.689  16.746  51.522
95858W        W87782  28.231   9.243  53.356
95859W        W87783  36.723  13.745  51.510
95860W        W87784  28.738  33.695  50.136
95861W        W87785  13.755  26.214  50.165
95862W        W87786  43.714  46.217  53.812
95863W        W87787  34.731  18.762  53.328
95864W        W87788   6.252  11.270  51.959
95865W        W87789  26.226  45.193  50.128
95866W        W87790   0.791  43.217  51.974
95867W        W87791  40.704   2.784  53.316
95868W        W87792  25.743  27.744  51.520
95869W        W87793   0.757  31.719  52.882
95870W        W87794  12.274  36.197  49.682
95871W        W87795  28.236   5.768  52.410
95872W        W87796  13.247   9.244  51.070
95873W        W87797  27.744  34.226  53.332
95874W        W87798  11.772  36.733  51.067
95875W        W87799   6.284  29.209  53.811
95876W        W87800  12.257  33.723  51.047
95877W        W87801   0.760  12.270  50.132
95878W        W87802  14.259  23.721  49.709
95879W        W87803  30.202  26.719  51.038
95880W        W87804  15.730  47.183  51.507
95881W        W87805  14.265  18.719  50.594
95882W        W87806  33.707  22.762  49.690
95883W        W87807  32.736  14.738  51.519
95884W        W87808  29.734  19.744  50.586
95885W        W87809  26.753  36.200  51.492
95886W        W87810  18.733  23.212  53.317
95887W        W87811  44.703  45.685  50.585
95888W        W87812  11.744  44.223  50.579
95889W        W87813  13.749   0.784  51.521
95890W        W87814  17.738  26.746  50.140
95891W        W87815  14.762  22.728  52.436
95892W        W87816   4.253  37.699  53.777
95893W        W87817  11.752   9.766  51.520
95894W        W87818   2.766  33.715  51.949
95895W        W87819  42.713   0.297  53.774
95896W        W87820  23.250  47.186  50.617
95897W        W87821  29.706  18.753  53.802
95898W        W87822   0.296   9.261  50.130
95899W        W87823  45.187  34.195  50.617
95900W        W87824  18.222  46.717  51.070
95901W        W87825  29.719   4.263  50.132
95902W        W87826   6.256  10.733  53.785
95903W        W87827  39.216  15.235  52.874
95904W        W87828  17.735  26.222  50.148
95905W        W87829  30.218   3.276  50.615
95906W        W87830  34.706  32.737  51.498
95907W        W87831  42.729   5.788  53.772
95908W        W87832   7.254  38.713  50.621
95909W        W87833  42.185  40.689  52.886
95910W        W87834   3.774  15.241  50.156
95911W        W87835  15.757  10.745  53.776
95912W        W87836   5.265  23.718  53.774
95913W        W87837  38.687  18.222  52.416
95914W        W87838   7.243  27.210  51.074
95915W        W87839  17.253  35.739  50.598
95916W        W87840  41.721  25.732  50.593
95917W        W87841  14.263  20.219  49.705
95918W        W87842  36.217  47.221  51.076
95919W        W87843  14.244  12.238  50.604
95920W        W87844  41.708  14.243  50.592
95921W        W87845  14.751  12.255  50.615
95922W        W87846  38.193  11.745  53.815
95923W        W87847  11.757   8.743  51.505
95924W        W87848   3.265  36.197  51.035
95925W        W87849  33.733  48.208  53.780
95926W        W87850  32.229  31.714  51.036
95927W        W87851  27.746  47.693  51.528
95928W        W87852  25.747  33.715  50.621
95929W        W87853  31.221   5.753  53.802
95930W        W87854  22.719   6.779  52.897
95931W        W87855  24.231  15.226  52.432
95932W        W87856  40.720  39.705  50.135
95933W        W87857  46.182  38.210  51.037
95934W        W87858   1.250  12.264  53.326
95935W        W87859   0.770   1.289  51.036
95936W        W87860   8.771  25.213  51.499
95937W        W87861  15.238  23.744  52.414
95938W        W87862   9.751  37.206  50.125
95939W        W87863  19.222  39.195  49.689
95940W        W87864  15.771  13.752  50.148
95941W        W87865   4.282  43.212  53.800
95942W        W87866  18.741   1.273  49.704
95943W        W87867   6.751  21.241  53.330
95944W        W87868  47.688  24.211  53.799
95945W        W87869  18.227  23.719  50.144
95946W        W87870   7.769  22.715  49.680
95947W        W87871   5.256  17.759  50.609
95948W        W87872   2.271  16.728  51.050
95949W        W87873  18.759  34.716  50.125
95950W        W87874  35.203  44.712  50.136
95951W        W87875  15.725  33.723  53.789
95952W        W87876  10.259   9.268  52.412
95953W        W87877   9.244  24.741  51.953
95954W        W87878   4.287  34.207  49.686
95955W        W87879  21.252   9.742  51.981
95956W        W87880   3.762  10.273  53.775
95957W        W87881   6.275  40.690  53.349
95958W        W87882  14.275  12.743  51.987
95959W        W87883  39.726  23.726  51.048
95960W        W87884  29.726   0.755  53.361
95961W        W87885  16.761  32.703  53.808
95962W        W87886  23.744  28.736  50.150
95963W        W87887  19.742  44.689  51.531
95964W        W87888   6.240  30.733  53.323
95965W        W87889   3.758  31.741  53.330
95966W        W87890  34.202  19.723  53.357
95967W        W87891  42.715  34.215  51.050
95968W        W87892  23.738  20.716  53.350
95969W        W87893  20.756   4.269  51.974
95970W        W87894  13.763  10.745  50.594
95971W        W87895  18.726  32.229  53.815
95972W        W87896  27.213  33.217  49.667
95973W        W87897  21.740  32.245  52.416
95974W        W87898  13.273  30.719  51.958
95975W        W87899  15.734  17.753  51.950
95976W        W87900  18.258  45.206  53.350
95977W        W87901  12.255  26.749  50.589
95978W        W87902  18.267  29.724  53.330
95979W        W87903   8.282  40.720  49.701
95980W        W87904  27.712  14.749  51.530
95981W        W87905   6.744  15.753  50.597
95982W        W87906  22.252  31.703  51.066
95983W        W87907   4.268  14.247  52.425
95984W        W87908  25.224  21.229  52.419
95985W        W87909  15.227  31.700  51.071
95986W        W87910  14.229  35.237  51.971
95987W        W87911  30.219  37.698  50.582
95988W        W87912  21.252  43.220  52.403
95989W        W87913  37.726  46.206  51.043
95990W        W87914  38.699  15.736  49.696
95991W        W87915   2.292  33.710  50.137
95992W        W87916  35.713  39.698  51.055
95993W        W87917  10.749  40.697  51.528
95994W        W87918  29.706  47.684  50.621
95995W        W87919  42.213   6.775  51.037
95996W        W87920  11.253  42.185  52.878
95997W        W87921  20.252  15.259  51.502
95998W        W87922  23.259  35.225  51.960
95999W        W87923  33.230  37.730  51.981
96000W        W87924  36.195   7.262  51.964
96001W        W87925  26.207  31.247  51.050
96002W        W87926  32.214  22.230  50.590
96003W        W87927  17.746  20.257  51.976
96004W        W87928  37.203  26.750  53.798
96005W        W87929   1.766  19.729  50.591
96006W        W87930  27.246  10.268  52.893
96007W        W87931  28.214  11.744  53.774
96008W        W87932  15.741  45.222  53.319
96009W        W87933  10.770  37.205  50.613
96010W        W87934   9.741   1.775  51.513
96011W        W87935  40.217  14.263  52.902
96012W        W87936   7.738  18.721  49.674
96013W        W87937   6.274   6.748  50.140
96014W        W87938  32.235  36.700  53.806
96015W        W87939  40.227  31.721  50.579
96016W        W87940  46.681   3.790  51.050
96017W        W87941  31.244   6.760  53.778
96018W        W87942  44.224  41.682  49.697
96019W        W87943  39.687  16.228  49.666
96020W        W87944  18.258  11.248  50.591
96021W        W87945  27.722   3.760  51.985
96022W        W87946  34.195  41.692  53.324
96023W        W87947  15.752  30.700  49.693
96024W        W87948  24.254  30.229  51.054
96025W        W87949  27.748  23.712  51.037
96026W        W87950  14.771  47.691  49.698
96027W        W87951   6.750  42.181  50.155
96028W        W87952   0.260  21.239  53.351
96029W        W87953  17.223  37.716  52.439
96030W        W87954   1.281  11.246  52.903
96031W        W87955  28.749  14.265  52.879
96032W        W87956  39.699   0.274  51.066
96033W        W87957  34.706  24.745  53.353
96034W        W87958  14.272  28.247  49.683
96035W        W87959  32.697  45.677  52.902
96036W        W87960  38.217   3.285  51.501
96037W        W87961   3.270  23.240  49.668
96038W        W87962  43.691  42.728  51.962
96039W        W87963  27.737   4.747  50.148
96040W        W87964  23.246  38.733  53.790
96041W        W87965  41.695  31.705  50.133
96042W        W87966   1.279  29.232  53.807
96043W        W87967  25.740  38.191  49.668
96044W        W87968   9.767  20.264  51.042
96045W        W87969  48.194   5.783  50.123
96046W        W87970  22.760  46.203  51.986
96047W        W87971   1.780  11.235  51.500
96048W        W87972  29.705  24.245  53.808
96049W        W87973  45.690  20.236  52.432
96050W        W87974  15.748  43.184  51.046
96051W        W87975  44.725   7.771  49.672
96052W        W87976  14.274  28.222  53.359
96053W        W87977   9.758  30.217  53.353
96054W        W87978   4.758  13.249  51.976
96055W        W87979  27.719   2.770  49.708
96056W        W87980  46.712  44.689  52.419
96057W        W87981  19.765  38.227  50.164
96058W        W87982  39.214  16.725  51.948
96059W        W87983   2.287  42.686  50.151
96060W        W87984  39.728   2.793  50.134
96061W        W87985   9.256  25.722  50.615
96062W        W87986  14.732  42.716  52.900
96063W        W87987  32.711  26.718  52.892
96064W        W87988  20.750  26.735  53.810
96065W        W87989  19.728  32.246  50.151
96066W        W87990  43.714  15.241  50.129
96067W        W87991  19.749  31.719  50.613
96068W        W87992   8.249  23.758  49.672
96069W        W87993   0.254  28.708  52.898
96070W        W87994  20.258  36.726  50.616
96071W        W87995  21.237  16.252  49.687
96072W        W87996  28.727  10.736  53.813
96073W        W87997  34.206  27.720  52.440
96074W        W87998  27.252   1.260  53.816
96075W        W87999  43.719  31.243  53.331
96076W        W88000  45.691  13.271  53.350
96077W        W88001  22.253  43.182  52.442
96078W        W88002  14.254  28.231  50.603
96079W        W88003   5.778  27.746  50.600
96080W        W88004  19.726  21.227  50.128
96081W        W88005   3.773  28.213  50.598
96082W        W88006  15.232  34.699  50.140
96083W        W88007  16.734  47.700  51.517
96084W        W88008  20.738  11.255  53.326
96085W        W88009  24.710  45.682  51.513
96086W        W88010  43.684  42.712  50.614
96087W        W88011  44.220  19.759  53.815
96088W        W88012  19.762  20.738  51.073
96089W        W88013   0.764   6.282  51.034
96090W        W88014  30.234  43.702  49.701
96091W        W88015  20.719  17.246  51.498
96092W        W88016   4.757   0.271  51.065
96093W        W88017  47.712  20.249  51.034
96094W        W88018   3.277  33.726  52.421
96095W        W88019  22.723   7.265  53.776
96096W        W88020   3.284  37.713  53.786
96097W        W88021   2.762   2.280  49.675
96098W        W88022  13.772   9.241  51.493
96099W        W88023  12.765  12.240  51.073
96100W        W88024  27.238  20.748  50.581
96101W        W88025  34.230  14.731  52.863
96102W        W88026  35.205  22.740  51.063
96103W        W88027  16.261  24.247  52.406
96104W        W88028  26.756  27.724  50.125
96105W        W88029  33.196  16.735  51.532
96106W        W88030   4.760  29.714  51.494
96107W        W88031  30.731   4.785  53.352
96108W        W88032  47.699  11.281  50.141
96109W        W88033  40.199  12.744  51.957
96110W        W88034   5.288   6.284  50.125
96111W        W88035   0.284  33.219  51.975
96112W        W88036  16.246  14.761  50.580
96113W        W88037  46.679  31.735  52.417
96114W        W88038  37.235  22.719  51.963
96115W        W88039  45.721   3.259  52.431
96116W        W88040  32.697  24.711  52.417
96117W        W88041   4.785   8.260  53.359
96118W        W88042   3.264  34.220  49.706
96119W        W88043   5.247  20.720  53.321
96120W        W88044  42.182  18.750  51.534
96121W        W88045  26.728  44.716  51.509
96122W        W88046   6.761  10.735  53.355
96123W        W88047   7.747  25.717  50.135
96124W        W88048  14.729  20.229  50.161
96125W        W88049  39.701  38.706  51.510
96126W        W88050  11.281  29.718  49.705
96127W        W88051  29.747  33.730  51.980
96128W        W88052  17.745  26.709  50.618
96129W        W88053  41.218  18.269  52.879
96130W        W88054  15.729  15.235  51.947
96131W        W88055  17.259   7.742  50.157
96132W        W88056   5.762  11.732  53.352
96133W        W88057  37.721  22.728  50.153
96134W        W88058  24.245  22.248  49.675
96135W        W88059  36.717  24.248  52.418
96136W        W88060  31.722  40.207  51.958
96137W        W88061  22.240  19.238  50.150
96138W        W88062  24.260  17.230  51.967
96139W        W88063   7.773  19.223  49.707
96140W        W88064  17.767  28.204  53.339
96141W        W88065  44.214  24.726  53.780
96142W        W88066  18.267  38.235  53.804
96143W        W88067  10.259  23.728  53.773
96144W        W88068  39.692   9.240  53.329
96145W        W88069  22.734  13.730  49.707
96146W        W88070   4.255  36.239  52.437
96147W        W88071  12.240  10.742  51.985
96148W        W88072  42.199  36.695  51.066
96149W        W88073  30.722  34.719  50.155
96150W        W88074   9.779   2.283  50.609
96151W        W88075   7.258  32.216  51.978
96152W        W88076  20.236  35.702  53.807
96153W        W88077  23.721  48.183  51.038
96154W        W88078  14.245  24.756  51.969
96155W        W88079  22.717  30.247  51.984
96156W        W88080  30.232  41.715  51.038
96157W        W88081  36.706  23.252  52.444
96158W        W88082   2.247  25.243  52.428
96159W        W88083  20.721  12.237  53.783
96160W        W88084  24.233  44.202  50.162
96161W        W88085  28.205  34.699  52.901
96162W        W88086  13.235  18.265  53.351
96163W        W88087  43.715  25.749  51.517
96164W        W88088  12.761  15.257  53.354
96165W        W88089  46.204  12.741  52.896
96166W        W88090  46.176   0.281  49.681
96167W        W88091  26.734  26.220  51.966
96168W        W88092  27.253   5.743  49.704
96169W        W88093  18.236  15.771  50.622
96170W        W88094  48.191  22.225  53.325
96171W        W88095  33.699   6.245  50.602
96172W        W88096  37.220  12.740  52.404
96173W        W88097  16.250  22.753  51.073
96174W        W88098  14.245  46.712  50.163
96175W        W88099  17.249  33.726  50.623
96176W        W88100  20.220  22.226  50.145
96177W        W88101  22.717  12.752  51.051
96178W        W88102  26.211  42.718  51.947
96179W        W88103  48.188  46.712  51.525
96180W        W88104  10.734   4.264  50.579
96181W        W88105   1.773   4.748  52.902
96182W        W88106  40.186  38.231  52.871
96183W        W88107  19.753  43.682  53.333
96184W        W88108   1.793  44.223  51.521
96185W        W88109  31.221   2.272  51.529
96186W        W88110  47.712  15.733  51.984
96187W        W88111   6.767   7.278  53.340
96188W        W88112  21.230   3.252  51.948
96189W        W88113  15.266  42.196  51.531
96190W        W88114  43.722  32.222  49.684
96191W        W88115   9.236   2.271  52.420
96192W        W88116  15.736   1.291  51.955
96193W        W88117  45.203  19.242  53.785
96194W        W88118  47.676  19.232  50.136
96195W        W88119  47.690  11.743  53.358
96196W        W88120  25.725  37.695  50.133
96197W        W88121  33.731  21.724  53.318
96198W        W88122  40.692  20.232  49.665
96199W        W88123  18.245  19.765  50.612
96200W        W88124   2.286  33.236  50.605
96201W        W88125  46.221   8.238  50.155
96202W        W88126  12.234   7.746  50.582
96203W        W88127  28.241  10.283  52.894
96204W        W88128  22.241   8.270  53.804
96205W        W88129  36.736  35.203  50.581
96206W        W88130  20.264   4.791  52.897
96207W        W88131  39.211  10.266  51.525
96208W        W88132  35.232   3.246  50.132
96209W        W88133  20.265   1.297  53.333
96210W        W88134  11.742  22.222  51.512
96211W        W88135  24.745  11.265  52.893
96212W        W88136   8.750   3.785  51.069
96213W        W88137  10.756  28.222  50.130
96214W        W88138  41.185   9.755  52.897
96215W        W88139  24.252  26.740  51.512
96216W        W88140  19.262  37.699  50.587
96217W        W88141  44.223  15.738  51.516
96218W        W88142  27.744  43.685  51.037
96219W        W88143  13.249   9.738  52.881
96220W        W88144  12.772  15.749  51.054
96221W        W88145   1.266  34.696  50.613
96222W        W88146   6.249  24.718  50.154
96223W        W88147  15.748  10.766  49.670
96224W        W88148  29.204   2.754  52.432
96225W        W88149   2.785   1.282  53.799
96226W        W88150  44.683   6.785  53.342
96227W        W88151   8.271  48.182  51.980
96228W        W88152  26.717  20.740  50.615
96229W        W88153   7.787   8.782  50.607
96230W        W88154  21.261  21.238  50.587
96231W        W88155  44.725  41.197  51.958
96232W        W88156  27.234  38.704  50.141
96233W        W88157   1.252  39.222  51.972
96234W        W88158  18.233   0.256  51.531
96235W        W88159  46.687  10.770  51.063
96236W        W88160  47.677  45.694  53.816
96237W        W88161  13.745   6.261  49.705
96238W        W88162  43.716  10.267  51.969
96239W        W88163  34.231  22.714  52.440
96240W        W88164   8.265  48.177  51.499
96241W        W88165  35.701  25.748  52.440
96242W        W88166   7.780  12.243  53.772
96243W        W88167  30.732  18.236  51.051
96244W        W88168  48.200  39.196  52.900
96245W        W88169   5.752  26.208  50.609
96246W        W88170   7.252   2.284  50.162
96247W        W88171   9.774  24.259  49.691
96248W        W88172  22.753  22.737  52.903
96249W        W88173  15.270  24.246  51.964
96250W        W88174  37.718  10.760  50.140
96251W        W88175  24.257   2.285  50.587
96252W        W88176  30.740  16.744  51.513
96253W        W88177   8.761  40.229  50.584
96254W        W88178   3.286   9.737  49.702
96255W        W88179  24.741  35.702  51.971
96256W        W88180  45.191  42.713  52.429
96257W        W88181  26.219  18.225  49.703
96258W        W88182  15.771  26.256  52.414
96259W        W88183  24.252   5.790  52.448
96260W        W88184  14.757   6.283  52.436
96261W        W88185  37.732  22.216  52.432
96262W        W88186  33.699  24.739  49.680
96263W        W88187  36.718  29.204  49.683
96264W        W88188   9.258  20.258  53.340
96265W        W88189  30.729   0.786  50.604
96266W        W88190  40.230  11.757  50.582
96267W        W88191  28.748  41.209  51.948
96268W        W88192  34.225  27.207  50.603
96269W        W88193  48.179  17.737  51.966
96270W        W88194  22.720   5.288  53.800
96271W        W88195  42.686  15.744  50.145
96272W        W88196  38.197  10.750  52.406
96273W        W88197   8.274  26.730  53.334
96274W        W88198   6.768   1.792  53.317
96275W        W88199  34.727  42.722  50.138
96276W        W88200  15.272   4.748  53.323
96277W        W88201  42.226   0.265  50.145
96278W        W88202  17.767  17.270  52.417
96279W        W88203   0.257  47.698  52.439
96280W        W88204  18.738  19.742  50.596
96281W        W88205  34.693  12.748  51.967
96282W        W88206  36.738  12.756  50.153
96283W        W88207  43.197   6.266  51.069
96284W        W88208  41.223  33.732  52.898
96285W        W88209  25.712  44.198  51.069
96286W        W88210  41.199  39.687  51.517
96287W        W88211   5.757  29.721  50.158
96288W        W88212   2.770  46.691  52.407
96289W        W88213  16.268  43.220  53.341
96290W        W88214  20.246  28.215  51.526
96291W        W88215  47.176  18.749  50.579
96292W        W88216  20.741  24.226  50.621
96293W        W88217  43.223   6.761  52.429
96294W        W88218  43.201  45.719  53.339
96295W        W88219  26.706  38.710  52.416
96296W        W88220  32.708  34.741  53.344
96297W        W88221  12.774  14.745  50.135
96298W        W88222  14.258  35.726  51.062
96299W        W88223   7.249   0.266  52.886
96300W        W88224  45.221  10.753  51.963
96301W        W88225  41.711  34.210  52.447
96302W        W88226  34.710   6.787  52.860
96303W        W88227  18.233  23.248  51.531
96304W        W88228   3.272  21.738  53.347
96305W        W88229  21.240   3.249  49.671
96306W        W88230  34.732  36.208  53.336
96307W        W88231   3.249  26.747  51.534
96308W        W88232  36.214  29.246  50.611
96309W        W88233  45.194   4.761  49.691
96310W        W88234  31.735  28.738  51.529
96311W        W88235  32.244  10.758  50.617
96312W        W88236   5.264   3.292  49.692
96313W        W88237  41.200  17.754  51.077
96314W        W88238  19.758  25.749  51.052
96315W        W88239   3.259  19.250  52.441
96316W        W88240   5.253  32.216  51.066
96317W        W88241  18.229  44.677  53.319
96318W        W88242   2.294  16.769  50.588
96319W        W88243  44.179  33.719  49.694
96320W        W88244  23.722  35.695  53.810
96321W        W88245  14.255  38.211  51.503
96322W        W88246  32.210  46.683  50.604
96323W        W88247   3.253  35.733  53.324
96324W        W88248  20.765  10.766  51.958
96325W        W88249  26.215  33.736  51.948
96326W        W88250  34.204   4.750  52.895
96327W        W88251   4.281  16.270  49.693
96328W        W88252  35.199  45.218  51.067
96329W        W88253  26.243  43.209  52.408
96330W        W88254  38.712  35.727  51.952
96331W        W88255  16.242  47.195  52.435
96332W        W88256  22.759  20.725  53.339
96333W        W88257  32.711  16.252  49.705
96334W        W88258  32.244  10.241  52.902
96335W        W88259  32.718  39.686  53.817
96336W        W88260  38.726  23.748  50.577
96337W        W88261  29.237   1.263  53.799
96338W        W88262  40.692  14.772  53.793
96339W        W88263  30.726   6.284  53.358
96340W        W88264  23.243  30.214  51.490
96341W        W88265  43.200  21.228  50.143
96342W        W88266  22.746  29.739  53.774
96343W        W88267  40.214  40.200  50.596
96344W        W88268  10.257  23.221  49.708
96345W        W88269  27.723  44.206  51.971
96346W        W88270   7.242  16.239  50.141
96347W        W88271   0.768   1.274  50.145
96348W        W88272   6.766  37.705  53.351
96349W        W88273   2.756  26.214  51.041
96350W        W88274  22.220  42.727  51.513
96351W        W88275  24.229  20.723  52.409
96352W        W88276  17.758   0.776  51.046
96353W        W88277  11.756  24.215  52.411
96354W        W88278  14.232  11.281  53.337
96355W        W88279  29.718   8.773  51.947
96356W        W88280   0.299  42.202  52.404
96357W        W88281   6.754  47.212  50.147
96358W        W88282   2.776  22.719  51.525
96359W        W88283  38.699  39.729  50.592
96360W        W88284  19.253  44.191  50.606
96361W        W88285  14.244  22.223  50.601
96362W        W88286  28.207  26.731  49.678
96363W        W88287  18.254  25.757  51.505
96364W        W88288  26.248  47.682  50.622
96365W        W88289  23.759  33.727  53.781
96366W        W88290  24.734  21.262  49.674
96367W        W88291   4.788   0.282  50.606
96368W        W88292  30.721  46.214  50.605
96369W        W88293  43.207  16.244  50.162
96370W        W88294  14.731   2.793  50.155
96371W        W88295  23.715  18.226  52.878
96372W        W88296  37.226  47.190  51.508
96373W        W88297  25.221  30.723  52.889
96374W        W88298  27.735   9.281  51.533
96375W        W88299  30.742  35.201  50.614
96376W        W88300  30.244  45.713  50.602
96377W        W88301   6.776  22.754  52.862
96378W        W88302  44.220  39.690  51.495
96379W        W88303  28.739   6.773  51.073
96380W        W88304  39.192  31.721  51.052
96381W        W88305  38.735  26.216  51.985
96382W        W88306  16.755  19.260  52.445
96383W        W88307  36.191  13.241  49.670
96384W        W88308  14.243  42.219  50.152
96385W        W88309  36.691  23.233  51.969
96386W        W88310  27.733  40.220  52.867
96387W        W88311  37.225  13.759  51.983
96388W        W88312  26.739  28.221  49.695
96389W        W88313  16.230  29.724  51.980
96390W        W88314  10.772   5.242  52.864
96391W        W88315  26.238  22.259  51.979
96392W        W88316  35.217   6.749  51.980
96393W        W88317  39.194  19.718  53.359
96394W        W88318   8.260  48.177  52.422
96395W        W88319  32.229  12.763  51.964
96396W        W88320  45.198  27.733  50.605
96397W        W88321  13.776  37.221  52.898
96398W        W88322  21.717  23.756  51.519
96399W        W88323  23.751  19.742  50.124
96400W        W88324  32.204  13.739  53.342
96401W        W88325   0.262  44.191  52.902
96402W        W88326   2.292  35.208  52.435
96403W        W88327  42.202  22.743  52.869
96404W        W88328  31.734  36.216  52.437
96405W        W88329  12.768  14.239  52.894
96406W        W88330  32.730  41.191  52.867
96407W        W88331   6.280  16.728  50.619
96408W        W88332  13.772  36.701  52.873
96409W        W88333  38.204  39.688  51.982
96410W        W88334  30.229   8.742  53.325
96411W        W88335  13.248  35.735  51.948
96412W        W88336  30.227  25.708  49.673
96413W        W88337  38.212  33.727  51.043
96414W        W88338   1.295  38.699  51.521
96415W        W88339  17.747  18.731  51.035
96416W        W88340  12.235  44.185  52.418
96417W        W88341  31.232  15.766  51.059
96418W        W88342  31.703  31.713  50.610
96419W        W88343   0.257   8.275  53.803
96420W        W88344  42.727  28.709  50.593
96421W        W88345  45.692   6.775  53.333
96422W        W88346   4.259  25.718  51.058
96423W        W88347  29.718  25.210  50.597
96424W        W88348  38.208  34.739  49.699
96425W        W88349  18.739  38.721  50.127
96426W        W88350  20.243  38.708  50.593
96427W        W88351   5.245  31.729  51.492
96428W        W88352  43.683   3.757  51.977
96429W        W88353   6.765   2.770  49.705
96430W        W88354  22.243   3.760  51.520
96431W        W88355   1.795  40.195  51.528
96432W        W88356   7.263  10.266  50.127
96433W        W88357   7.754   4.771  52.447
96434W        W88358  35.229   1.763  53.778
96435W        W88359  36.733  21.224  50.589
96436W        W88360  48.210  38.689  53.786
96437W        W88361   9.238   5.771  53.817
96438W        W88362   8.765  43.195  51.528
96439W        W88363   2.251  19.235  50.604
96440W        W88364   9.282   4.267  52.890
96441W        W88365   4.258  11.240  50.156
96442W        W88366  16.731   8.275  52.419
96443W        W88367   2.257  27.735  52.432
96444W        W88368  39.708   1.253  52.429
96445W        W88369  12.249  40.731  51.991
96446W        W88370  34.204  32.697  50.596
96447W        W88371   9.254  11.772  53.799
96448W        W88372  48.193  42.712  52.413
96449W        W88373   0.281  44.679  53.783
96450W        W88374  13.258  28.214  51.990
96451W        W88375   0.796   3.278  53.803
96452W        W88376   5.282  48.210  51.063
96453W        W88377  16.228  23.230  50.160
96454W        W88378  19.231  17.267  51.528
96455W        W88379  24.259  30.729  51.500
96456W        W88380  26.235   7.256  50.163
96457W        W88381  34.224  36.207  49.680
96458W        W88382  29.748  46.193  49.693
96459W        W88383   9.749  17.222  53.321
96460W        W88384   0.761  27.237  51.953
96461W        W88385  45.709   7.270  49.665
96462W        W88386  45.722  14.246  50.609
96463W        W88387  22.226  15.245  51.503
96464W        W88388  24.747  47.179  52.419
96465W        W88389  11.764  46.697  51.987
96466W        W88390  11.743   1.276  51.512
96467W        W88391  10.735  43.710  53.812
96468W        W88392  27.736  20.744  51.062
96469W        W88393   9.260  41.199  51.079
96470W        W88394  18.249  47.200  51.964
96471W        W88395  36.701   8.757  50.581
96472W        W88396  17.263  13.757  49.700
96473W        W88397  48.195  25.220  51.049
96474W        W88398   3.276   5.276  51.969
96475W        W88399  19.735  20.249  53.339
96476W        W88400  41.220  24.746  50.133
96477W        W88401   9.253  20.751  50.599
96478W        W88402  15.753   3.283  50.125
96479W        W88403   1.787   2.247  53.337
96480W        W88404  43.226   6.754  53.331
96481W        W88405  38.718   4.745  51.502
96482W        W88406  27.253   8.251  52.414
96483W        W88407  20.227  23.260  52.893
96484W        W88408  34.218  45.718  52.873
96485W        W88409  14.736   4.746  52.874
96486W        W88410  19.230  41.687  53.808
96487W        W88411  19.729  11.239  49.709
96488W        W88412  10.235  26.242  50.122
96489W        W88413  29.240  21.240  53.334
96490W        W88414  37.721  31.219  51.039
96491W        W88415  30.742  27.730  49.697
96492W        W88416  21.235  41.714  51.947
96493W        W88417  13.242  19.227  52.425
96494W        W88418  37.198   8.783  53.336
96495W        W88419  21.730  42.193  52.861
96496W        W88420  15.769  18.739  52.423
96497W        W88421  42.181  10.754  51.956
96498W        W88422  42.203   3.287  50.591
96499W        W88423  16.263  15.759  51.984
96500W        W88424  46.705  30.236  51.070
96501W        W88425  20.732  18.769  51.044
96502W        W88426   9.256  37.217  52.412
96503W        W88427  42.218  16.752  53.803
96504W        W88428  41.698   5.276  51.988
96505W        W88429  28.223   0.253  52.416
96506W        W88430   5.784  45.201  53.816
96507W        W88431   7.263  47.214  50.599
96508W        W88432  24.216   7.739  50.166
96509W        W88433  37.690  10.274  53.327
96510W        W88434   8.779  41.184  50.585
96511W        W88435  33.202  30.210  50.155
96512W        W88436  18.729  32.234  52.884
96513W        W88437  29.741  25.249  49.706
96514W        W88438  33.242   4.767  51.516
96515W        W88439  27.705   3.791  50.602
96516W        W88440   2.795  21.715  50.607
96517W        W88441   7.263  17.736  53.815
96518W        W88442  33.729   9.755  51.516
96519W        W88443  20.747  42.217  52.896
96520W        W88444  24.745  35.221  52.422
96521W        W88445  18.759   1.284  52.859
96522W        W88446  44.711   6.739  52.875
96523W        W88447  40.719  44.187  53.343
96524W        W88448  32.231  24.744  53.318
96525W        W88449  44.688  44.216  50.154
96526W        W88450   3.270   1.291  50.164
96527W        W88451   0.791  11.748  53.341
96528W        W88452  46.722  34.231  52.439
96529W        W88453  41.207  43.198  53.773
96530W        W88454  13.774   0.769  53.794
96531W        W88455  23.257  24.211  52.893
96532W        W88456  37.723   3.292  50.592
96533W        W88457  26.729  46.221  50.593
96534W        W88458  24.245  33.230  49.688
96535W        W88459  42.228  25.748  50.161
96536W        W88460  15.764   6.749  50.129
96537W        W88461  26.247  36.216  51.955
96538W        W88462  28.732  44.712  53.774
96539W        W88463  27.742  43.698  51.493
96540W        W88464  39.215  44.186  52.445
96541W        W88465  23.237  25.727  51.500
96542W        W88466   4.755  41.717  51.524
96543W        W88467   1.759  47.181  53.318
96544W        W88468  31.702  11.739  51.981
96545W        W88469  34.715  20.733  52.417
96546W        W88470  19.735  19.259  50.129
96547W        W88471  30.714  39.226  50.584
96548W        W88472  29.203  16.747  51.967
96549W        W88473  48.209  21.245  52.868
96550W        W88474  16.733   1.793  51.524
96551W        W88475  17.222  31.224  53.341
96552W        W88476  12.777  47.718  50.153
96553W        W88477  13.734  18.720  52.899
96554W        W88478   2.275  35.700  51.050
96555W        W88479  39.687  23.231  50.613
96556W        W88480  44.219  16.724  51.516
96557W        W88481   8.256  14.240  51.534
96558W        W88482   9.781  41.707  52.405
96559W        W88483   7.271   9.262  50.586
96560W        W88484  19.257  32.697  53.775
96561W        W88485  42.206  15.759  51.040
96562W        W88486   1.766   6.779  49.668
96563W        W88487  20.231  28.705  53.316
96564W        W88488  36.695  35.221  53.316
96565W        W88489  30.736   1.257  53.359
96566W        W88490  13.735  22.757  53.332
96567W        W88491  28.742   1.753  50.143
96568W        W88492  44.719  28.748  51.523
96569W        W88493  47.706  15.271  51.953
96570W        W88494  11.238  43.227  50.128
96571W        W88495  47.197  21.216  52.434
96572W        W88496  32.206   6.246  50.126
96573W        W88497  17.252  30.725  51.079
96574W        W88498  13.750   9.781  49.698
96575W        W88499  36.238   8.242  50.136
96576W        W88500  26.246  10.237  53.790
96577W        W88501   8.738  41.231  49.707
96578W        W88502  38.223  36.716  51.521
96579W        W88503   6.242  34.207  51.500
96580W        W88504  24.735  38.734  49.699
96581W        W88505  34.210   4.770  51.519
96582W        W88506  21.222  35.231  49.672
96583W        W88507   6.788  20.225  51.046
96584W        W88508  24.226   7.773  51.975
96585W        W88509  23.758   6.768  51.967
96586W        W88510  19.761   3.284  53.807
96587W        W88511  23.718  46.183  53.780
96588W        W88512   3.772  20.228  53.358
96589W        W88513  10.280  40.703  52.897
96590W        W88514  35.724  47.674  50.123
96591W        W88515  12.736  15.261  53.786
96592W        W88516  32.232  16.726  50.589
96593W        W88517  39.694  31.199  52.439
96594W        W88518  18.738   4.787  51.985
96595W        W88519  24.221  26.238  51.982
96596W        W88520  31.703  20.733  50.155
96597W        W88521  42.681   0.793  50.161
96598W        W88522  30.245  22.754  49.678
96599W        W88523   9.767  23.727  53.773
96600W        W88524  25.708   5.271  52.862
96601W        W88525  23.221  28.737  53.350
96602W        W88526  30.742   1.794  53.326
96603W        W88527  30.723  14.735  51.953
96604W        W88528  10.234  31.234  49.669
96605W        W88529  12.746  20.764  49.707
96606W        W88530  37.216  28.237  52.419
96607W        W88531   4.787  48.213  50.619
96608W        W88532  29.237  33.744  52.416
96609W        W88533  48.202   1.774  49.680
96610W        W88534  18.247  31.208  53.802
96611W        W88535  33.703  45.709  51.528
96612W        W88536  45.210  36.232  51.950
96613W        W88537  10.243  30.713  52.408
96614W        W88538  46.692  23.261  52.413
96615W        W88539  13.261   6.255  52.899
96616W        W88540  25.737  10.273  53.351
96617W        W88541   9.741  14.236  53.816
96618W        W88542  32.205  26.234  50.165
96619W        W88543  37.192  30.208  51.053
96620W        W88544  30.726  47.174  51.968
96621W        W88545  35.718  30.713  51.071
96622W        W88546  13.770  42.685  51.046
96623W        W88547  25.711  13.735  51.034
96624W        W88548  17.758  21.236  49.688
96625W        W88549  26.236   3.278  53.794
96626W        W88550  12.756  27.236  52.404
96627W        W88551   8.246   1.790  51.958
96628W        W88552  34.741  48.201  51.966
96629W        W88553   7.275   1.294  52.433
96630W        W88554  23.740  44.720  51.950
96631W        W88555   0.751  30.730  52.437
96632W        W88556  10.255  14.755  52.446
96633W        W88557  24.237  44.708  51.052
96634W        W88558  19.253  33.727  52.895
96635W        W88559  31.237  14.273  51.067
96636W        W88560  25.208  24.722  53.798
96637W        W88561   2.260  22.235  52.418
96638W        W88562  35.237  31.698  51.495
96639W        W88563  34.210  36.203  50.130
96640W        W88564  30.246   4.259  52.435
96641W        W88565  22.757  19.230  53.342
96642W        W88566  30.736  26.215  52.444
96643W        W88567   8.253  17.727  51.072
96644W        W88568  15.769  31.202  51.517
96645W        W88569  42.195  22.756  53.803
96646W        W88570  16.243   1.264  51.071
96647W        W88571  12.276   6.271  50.155
96648W        W88572  37.191  13.739  53.784
96649W        W88573  17.733  23.256  51.972
96650W        W88574  40.726  43.209  52.424
96651W        W88575  44.696  48.219  51.044
96652W        W88576   5.741  28.732  50.596
96653W        W88577   6.774  44.684  53.796
96654W        W88578   9.779  31.247  50.155
96655W        W88579  27.732  39.221  53.798
96656W        W88580  47.186  38.723  49.679
96657W        W88581  10.264  17.760  51.065
96658W        W88582  35.220  13.733  51.499
96659W        W88583  25.219  40.686  52.424
96660W        W88584   4.748  43.705  51.075
96661W        W88585  46.689  22.217  52.885
96662W        W88586  14.231  22.755  51.513
96663W        W88587  13.754   0.285  51.948
96664W        W88588  47.211  25.728  53.788
96665W        W88589  15.743  29.211  51.530
96666W        W88590  45.208  11.738  50.131
96667W        W88591  33.204  29.207  49.690
96668W        W88592  37.734  26.727  51.947
96669W        W88593  32.197  41.698  51.529
96670W        W88594   0.268   9.753  51.524
96671W        W88595  18.766   6.242  50.607
96672W        W88596  44.181  23.240  50.610
96673W        W88597  20.716  31.227  49.695
96674W        W88598  22.221  39.218  51.531
96675W        W88599  11.267  29.712  52.439
96676W        W88600   3.774  15.759  53.776
96677W        W88601  24.243  25.209  53.777
96678W        W88602   2.250   9.745  53.337
96679W        W88603  33.722  30.742  53.815
96680W        W88604  24.244   2.271  51.971
96681W        W88605  28.750  32.228  49.704
96682W        W88606   6.254  37.705  51.037
96683W        W88607   5.270  43.191  51.490
96684W        W88608  39.191  24.748  52.897
96685W        W88609  14.775  33.236  53.786
96686W        W88610  48.190   8.244  50.594
96687W        W88611  22.733  46.677  51.985
96688W        W88612  12.756  47.689  53.321
96689W        W88613   9.246  40.721  52.443
96690W        W88614   0.766  15.237  52.905
96691W        W88615  25.711  29.209  53.324
96692W        W88616  25.749  10.772  51.948
96693W        W88617  13.751  20.237  53.339
96694W        W88618  15.742   5.255  50.126
96695W        W88619  44.216  20.264  52.885
96696W        W88620  35.201   2.277  50.129
96697W        W88621  40.204  13.731  51.963
96698W        W88622  26.238  16.260  51.947
96699W        W88623   6.779   9.260  50.620
96700W        W88624  24.729  36.730  52.900
96701W        W88625  47.687  10.754  53.791
96702W        W88626  42.183  43.212  51.067
96703W        W88627  39.721   5.265  49.698
96704W        W88628  29.233  39.214  53.325
96705W        W88629  47.701  38.225  51.053
96706W        W88630   1.283  33.225  52.409
96707W        W88631  28.246  38.189  51.951
96708W        W88632  32.213  16.270  53.354
96709W        W88633  21.245  24.230  50.135
96710W        W88634  18.247  20.758  52.875
96711W        W88635  38.199  41.716  53.345
96712W        W88636  38.724  29.720  52.902
96713W        W88637  23.219   6.741  53.781
96714W        W88638  19.756  27.753  50.145
96715W        W88639  12.744  27.206  51.961
96716W        W88640  30.741   7.251  51.983
96717W        W88641  15.772   1.760  53.336
96718W        W88642  10.776  23.720  49.665
96719W        W88643  40.701  13.241  51.524
96720W        W88644  29.232  18.728  51.059
96721W        W88645  33.719  26.241  53.776
96722W        W88646  17.742   7.278  53.335
96723W        W88647  23.232  12.233  53.316
96724W        W88648  23.234  43.683  51.965
96725W        W88649   2.295  30.727  52.436
96726W        W88650  24.749  14.227  50.591
96727W        W88651  19.243   0.758  50.153
96728W        W88652  14.265  45.684  52.896
96729W        W88653  42.686   7.741  49.685
96730W        W88654   2.281   4.769  51.504
96731W        W88655   2.286  20.756  53.782
96732W        W88656   1.751  27.737  51.491
96733W        W88657   2.295  42.220  51.071
96734W        W88658  35.217  25.736  51.526
96735W        W88659   7.269  26.755  50.164
96736W        W88660  28.207  15.260  53.777
96737W        W88661  19.264  45.694  50.138
96738W        W88662   5.250   2.784  50.132
96739W        W88663  33.732   9.274  50.154
96740W        W88664   7.275  16.260  51.037
96741W        W88665  33.219  26.748  50.147
96742W        W88666   2.791   5.759  51.048
96743W        W88667  26.741  20.229  49.701
96744W        W88668  39.698   9.761  53.344
96745W        W88669  30.222  40.695  50.579
96746W        W88670  18.269  46.213  51.982
96747W        W88671  40.710  43.699  53.783
96748W        W88672  11.233   5.267  52.894
96749W        W88673  26.746  40.723  51.065
96750W        W88674   2.781  40.185  51.968
96751W        W88675  23.715  26.223  50.587
96752W        W88676  45.702  40.200  51.068
96753W        W88677   6.743  22.231  51.492
96754W        W88678  35.213  12.765  51.947
96755W        W88679   5.285  43.725  49.673
96756W        W88680  15.251   0.259  52.875
96757W        W88681  40.724   3.791  50.123
96758W        W88682  34.225   9.755  51.952
96759W        W88683  17.243   6.280  53.347
96760W        W88684   8.745  31.702  52.885
96761W        W88685  45.723  42.686  50.164
96762W        W88686  47.684  17.731  51.034
96763W        W88687   2.252   5.784  51.073
96764W        W88688  42.223  27.250  53.785
96765W        W88689  39.719  30.212  52.870
96766W        W88690  35.707  18.253  50.127
96767W        W88691  17.770   5.765  52.876
96768W        W88692  12.749  34.700  51.039
96769W        W88693  34.721  32.212  53.780
96770W        W88694  39.229   0.758  53.323
96771W        W88695  47.192  45.701  50.153
96772W        W88696  20.734   1.251  53.321
96773W        W88697  10.743   7.263  53.806
96774W        W88698   4.255  40.706  52.879
96775W        W88699  44.680   2.282  52.881
96776W        W88700   5.256  19.737  49.677
96777W        W88701  14.234  21.253  51.076
96778W        W88702  28.247  26.235  53.804
96779W        W88703   1.261  11.753  52.441
96780W        W88704   3.278  35.705  51.516
96781W        W88705  22.250  32.738  52.882
96782W        W88706  21.246   1.748  52.895
96783W        W88707  26.246  38.198  52.422
96784W        W88708  16.231  34.733  50.592
96785W        W88709  25.711  26.740  52.416
96786W        W88710  29.215  42.680  53.350
96787W        W88711  20.257   0.270  52.859
96788W        W88712  38.209  16.765  52.899
96789W        W88713  28.715  47.210  51.066
96790W        W88714   5.789  45.686  50.601
96791W        W88715  17.732  19.760  51.503
96792W        W88716  41.204  19.727  50.604
96793W        W88717  30.200  17.225  53.772
96794W        W88718   6.772  44.195  51.525
96795W        W88719  40.711  18.231  49.703
96796W        W88720  37.205  38.225  51.513
96797W        W88721  44.686  33.714  53.357
96798W        W88722  31.730  17.228  53.811
96799W        W88723  31.699  12.742  53.785
96800W        W88724   2.295   5.277  53.781
96801W        W88725  47.677  16.739  53.344
96802W        W88726  13.231  20.725  51.969
96803W        W88727  19.256  19.245  51.960
96804W        W88728  25.233   3.245  53.785
96805W        W88729  46.687  12.746  53.775
96806W        W88730  15.757  26.225  51.519
96807W        W88731   1.290  17.269  53.358
96808W        W88732   2.251  29.230  50.604
96809W        W88733  38.731  42.683  50.128
96810W        W88734  28.704  30.702  52.861
96811W        W88735   5.744  40.683  51.950
96812W        W88736  15.268  36.693  52.888
96813W        W88737   5.243   4.768  51.053
96814W        W88738  23.759  18.742  53.326
96815W        W88739  42.185  12.766  52.904
96816W        W88740  42.207  20.234  50.580
96817W        W88741  40.689  10.275  53.774
96818W        W88742  37.238  46.705  52.897
96819W        W88743  40.230  33.202  51.512
96820W        W88744   1.277  13.755  50.160
96821W        W88745  40.192   6.740  51.063
96822W        W88746   1.276  10.283  53.778
96823W        W88747   5.749   1.782  50.141
96824W        W88748  40.732   6.779  53.788
96825W        W88749  10.772  33.699  51.038
96826W        W88750  43.182  37.721  51.070
96827W        W88751  33.201  30.230  53.322
96828W        W88752  30.702  43.199  50.618
96829W        W88753  11.278  46.681  50.122
96830W        W88754  43.213  35.242  52.866
96831W        W88755  38.207  12.245  51.953
96832W        W88756  12.741  43.724  53.338
96833W        W88757   6.753  27.225  49.694
96834W        W88758   0.255  29.251  52.903
96835W        W88759  14.253  48.174  51.072
96836W        W88760  27.219  18.755  51.073
96837W        W88761   8.739  18.232  49.678
96838W        W88762  43.194  12.761  51.047
96839W        W88763  30.742  15.744  51.051
96840W        W88764  47.686  18.747  53.785
96841W        W88765  11.757  38.236  49.694
96842W        W88766   6.763  30.213  49.705
96843W        W88767   9.270  21.714  52.428
96844W        W88768  28.221  17.745  51.052
96845W        W88769   9.261  25.244  53.361
96846W        W88770  23.239  36.234  53.798
96847W        W88771  23.232   6.244  51.963
96848W        W88772  45.721  33.701  53.320
96849W        W88773   7.273   7.272  49.700
96850W        W88774  48.200  12.268  53.358
96851W        W88775   1.769  11.755  51.039
96852W        W88776  30.748  36.190  53.784
96853W        W88777   0.286   6.745  50.141
96854W        W88778  40.195   8.241  50.618
96855W        W88779  33.218  11.250  51.966
96856W        W88780  47.704  29.741  53.334
96857W        W88781  43.216  27.207  53.818
96858W        W88782  26.734  45.717  53.319
96859W        W88783  28.737  35.235  51.949
96860W        W88784  14.728  47.196  49.681
96861W        W88785  43.197  38.223  49.699
96862W        W88786  15.752  39.692  53.327
96863W        W88787  24.251  22.261  52.869
96864W        W88788  39.691  26.229  50.612
96865W        W88789  25.221  32.708  53.814
96866W        W88790   6.282  46.219  50.585
96867W        W88791  48.193  15.731  51.986
96868W        W88792   9.772  34.221  51.949
96869W        W88793  10.234  35.701  53.328
96870W        W88794  13.269  18.222  51.049
96871W        W88795  14.259   6.245  51.960
96872W        W88796  16.229  15.225  50.143
96873W        W88797  45.710  26.230  52.440
96874W        W88798  10.756  29.250  53.815
96875W        W88799  42.707   1.294  51.970
96876W        W88800   7.278  13.765  50.150
96877W        W88801   4.270   4.287  49.690
96878W        W88802  13.243  31.728  52.879
96879W        W88803  31.703  36.233  53.333
96880W        W88804   1.279  31.710  50.593
96881W        W88805  30.220  28.728  53.792
96882W        W88806  30.234  24.713  50.144
96883W        W88807  15.262  34.724  50.618
96884W        W88808  12.737   3.782  53.342
96885W        W88809  11.778  41.228  51.074
96886W        W88810  37.717  38.690  50.162
96887W        W88811   6.768  37.209  51.952
96888W        W88812  20.764  16.231  51.953
96889W        W88813   9.736  15.233  53.815
96890W        W88814  13.241  43.694  50.130
96891W        W88815  39.686  38.701  50.608
96892W        W88816  43.696  12.774  49.690
96893W        W88817  41.211   1.764  51.954
96894W        W88818  31.705  10.235  53.321
96895W        W88819  45.183  44.198  50.606
96896W        W88820   0.258  40.225  51.506
96897W        W88821  24.241  18.741  50.148
96898W        W88822  15.239  45.186  51.062
96899W        W88823   5.258  32.732  51.515
96900W        W88824  42.696  17.233  49.668
96901W        W88825  47.700   7.280  53.361
96902W        W88826   3.781  40.705  50.592
96903W        W88827  18.234  47.183  53.342
96904W        W88828  37.194  14.263  50.594
96905W        W88829   1.266  35.717  49.702
96906W        W88830  45.676   0.287  51.979
96907W        W88831  32.200   7.278  51.965
96908W        W88832  36.702  18.731  50.579
96909W        W88833   3.263  23.226  53.341
96910W        W88834  31.702  19.236  53.342
96911W        W88835  25.710  23.259  52.870
96912W        W88836  37.232  14.770  50.608
96913W        W88837   0.766  48.173  51.055
96914W        W88838  21.222  34.232  53.335
96915W        W88839  17.735  19.256  49.664
96916W        W88840  15.742   2.751  52.433
96917W        W88841   1.286  40.230  53.793
96918W        W88842   1.752  40.733  53.796
96919W        W88843  35.192   2.261  52.884
96920W        W88844  16.729  15.255  50.579
96921W        W88845  25.248  23.739  51.974
96922W        W88846  36.708  18.241  50.591
96923W        W88847  43.190  16.270  52.405
96924W        W88848  10.735  42.694  52.427
96925W        W88849  19.252  43.698  52.897
96926W        W88850  47.720   2.282  51.531
96927W        W88851  24.758  34.742  51.970
96928W        W88852  20.721  21.720  52.867
96929W        W88853  16.730  20.236  53.359
96930W        W88854   3.287  26.207  49.677
96931W        W88855  35.728  42.188  53.358
96932W        W88856   8.251  28.228  49.704
96933W        W88857  16.732   0.777  53.357
96934W        W88858  34.235   6.758  50.123
96935W        W88859  42.226   2.259  53.319
96936W        W88860  20.253  29.708  51.989
96937W        W88861  40.200  39.732  53.781
96938W        W88862  45.678  13.766  51.978
96939W        W88863  45.223  31.721  52.888
96940W        W88864   1.258   5.784  51.498
96941W        W88865   7.784   7.780  50.126
96942W        W88866  14.763  14.762  49.706
96943W        W88867  32.212  20.229  51.503
96944W        W88868  45.720  16.765  52.874
96945W        W88869  26.249  43.699  53.335
96946W        W88870  16.730   6.743  51.953
96947W        W88871  17.227  46.693  50.137
96948W        W88872  11.777  37.694  52.894
96949W        W88873   4.286  30.229  51.948
96950W        W88874  26.714  46.717  53.327
96951W        W88875  46.687  21.758  52.424
96952W        W88876   2.783  33.737  49.671
96953W        W88877  36.230   3.770  52.881
96954W        W88878  39.187  39.215  50.621
96955W        W88879  22.740  29.233  52.882
96956W        W88880  25.736  20.223  49.692
96957W        W88881  28.711   2.794  50.139
96958W        W88882  47.173  10.748  51.962
96959W        W88883  23.228  40.228  53.793
96960W        W88884  11.257   8.275  52.866
96961W        W88885   4.267  11.772  52.896
96962W        W88886  40.730  31.718  51.502
96963W        W88887  38.200  25.740  53.333
96964W        W88888  22.236  10.744  51.061
96965W        W88889  10.245  31.233  53.814
96966W        W88890   9.780  47.176  52.438
96967W        W88891  27.729  35.722  49.681
96968W        W88892   2.289  48.177  51.041
96969W        W88893   9.775  34.732  50.141
96970W        W88894   9.737  37.713  51.039
96971W        W88895  33.695  47.207  51.507
96972W        W88896  27.206  34.723  51.035
96973W        W88897   6.250  26.734  50.140
96974W        W88898  32.200   3.774  50.606
96975W        W88899  47.179  36.695  51.510
96976W        W88900   7.752  33.710  53.347
96977W        W88901  29.725  41.702  53.786
96978W        W88902   8.747  25.224  51.976
96979W        W88903   4.773   1.782  51.075
96980W        W88904  44.204   6.287  52.863
96981W        W88905  27.731  45.221  53.336
96982W        W88906  46.694  41.197  49.683
96983W        W88907  44.694   8.273  50.125
96984W        W88908   3.256   2.281  52.435
96985W        W88909  47.676  16.751  51.494
96986W        W88910  23.217   1.759  51.067
96987W        W88911   6.758  45.703  53.777
96988W        W88912  14.231  20.749  53.781
96989W        W88913   0.260  42.215  51.076
96990W        W88914  32.203  29.723  52.898
96991W        W88915  29.734  20.260  52.884
96992W        W88916  38.228  42.184  51.035
96993W        W88917  31.216  42.718  51.492
96994W        W88918  37.197  26.725  50.589
96995W        W88919  29.713  17.231  50.155
96996W        W88920   7.267  11.735  51.505
96997W        W88921  28.740  35.726  51.977
96998W        W88922  36.209  44.690  50.128
96999W        W88923  17.264   9.239  50.602
97000W        W88924  31.713  39.718  50.138
97001W        W88925  19.759   1.293  53.347
97002W        W88926   8.264   2.751  51.957
97003W        W88927  14.726  18.741  49.675
97004W        W88928  28.732  44.718  53.318
97005W        W88929  31.701  25.230  51.035
97006W        W88930  16.270   8.741  50.604
97007W        W88931  12.258  32.210  51.053
97008W        W88932  41.723   4.744  53.358
97009W        W88933  40.707  19.222  49.682
97010W        W88934  13.268  44.715  49.683
97011W        W88935  47.194  22.734  53.328
97012W        W88936  17.229  40.205  53.345
97013W        W88937  19.762   5.748  51.530
97014W        W88938  28.233  36.694  53.332
97015W        W88939  36.205  31.235  53.773
97016W        W88940   9.248  13.754  50.134
97017W        W88941  14.227  12.245  52.422
97018W        W88942  45.706  38.734  53.352
97019W        W88943   0.295   7.272  51.050
97020W        W88944   4.767  32.737  51.529
97021W        W88945  25.752  19.748  50.156
97022W        W88946  19.229  42.702  53.799
97023W        W88947  20.732   6.243  50.595
97024W        W88948  17.256  10.746  52.891
97025W        W88949  41.698   3.267  50.161
97026W        W88950  46.218  34.696  50.144
97027W        W88951   2.783   2.276  51.051
97028W        W88952  36.193  46.205  51.518
97029W        W88953  11.777  19.743  50.147
97030W        W88954  47.700  19.250  52.422
97031W        W88955   7.285  37.200  49.699
97032W        W88956  28.239   5.767  50.607
97033W        W88957  24.711   3.754  50.122
97034W        W88958  16.263  15.730  53.806
97035W        W88959   1.755  13.236  51.529
97036W        W88960  35.707  46.223  52.898
97037W        W88961  11.733   3.748  49.686
97038W        W88962  14.267  32.714  51.509
97039W        W88963  35.223   0.786  50.600
97040W        W88964  11.238  15.263  51.958
97041W        W88965  33.203  34.214  51.070
97042W        W88966  28.245  42.707  51.497
97043W        W88967  42.685  47.197  51.050
97044W        W88968  11.755  10.254  50.163
97045W        W88969   6.765   2.761  50.123
97046W        W88970  41.210  29.232  51.958
97047W        W88971  20.756   2.781  51.040
97048W        W88972  42.194   5.245  52.418
97049W        W88973   4.283  28.748  52.436
97050W        W88974  26.722  38.687  53.352
97051W        W88975  34.727  44.211  49.700
97052W        W88976  38.734  15.769  51.067
97053W        W88977  19.223  24.740  52.424
97054W        W88978  46.223  31.246  51.984
97055W        W88979  43.183  39.223  50.127
97056W        W88980  18.243  22.246  50.615
97057W        W88981  18.721  11.753  52.895
97058W        W88982  27.234  41.714  53.794
97059W        W88983  25.244  16.241  51.079
97060W        W88984  43.685  39.201  49.681
97061W        W88985   0.288  20.258  51.516
97062W        W88986  24.747  27.234  51.952
97063W        W88987  31.218  46.687  50.152
97064W        W88988  40.226  24.227  50.591
97065W        W88989  33.214  17.730  50.140
97066W        W88990  19.766  14.228  51.035
97067W        W88991  16.232  17.754  49.691
97068W        W88992  17.753  34.728  52.865
97069W        W88993  17.270  32.738  50.621
97070W        W88994  17.752  36.710  52.866
97071W        W88995   0.773  10.260  49.699
97072W        W88996  35.232  26.750  50.149
97073W        W88997  44.193  32.697  53.788
97074W        W88998   6.262  36.206  53.809
97075W        W88999   8.253  18.763  51.505
97076W        W89000  28.235  46.175  52.860
97077W        W89001  35.238   3.251  49.686
97078W        W89002  30.206  28.208  51.070
97079W        W89003  38.704   8.240  52.419
97080W        W89004  16.770  20.232  51.514
97081W        W89005  43.705   5.262  52.413
97082W        W89006  14.736  45.676  52.427
97083W        W89007  10.762  14.747  51.490
97084W        W89008   3.267  19.730  52.408
97085W        W89009  16.237  13.240  49.675
97086W        W89010  47.676  34.222  53.778
97087W        W89011   5.290  40.205  51.048
97088W        W89012   8.740   9.747  53.333
97089W        W89013  17.749   1.790  51.974
97090W        W89014  17.753  14.255  50.150
97091W        W89015   4.279   3.248  50.607
97092W        W89016  12.749  38.689  50.130
97093W        W89017   8.257   6.258  52.867
97094W        W89018  24.236  27.243  49.703
97095W        W89019  22.745  17.763  51.985
97096W        W89020  26.748  48.180  50.160
97097W        W89021  22.263  38.687  53.793
97098W        W89022  17.250  33.724  52.442
97099W        W89023   4.286  28.738  51.071
97100W        W89024  24.731  16.243  53.331
97101W        W89025  10.750  18.243  52.439
97102W        W89026  24.739  16.245  51.958
97103W        W89027  31.735  18.760  51.049
97104W        W89028  17.723   2.754  52.422
97105W        W89029   5.244  23.721  52.895
97106W        W89030  29.705  28.242  51.059
97107W        W89031  34.221   6.784  49.682
97108W        W89032  48.198  43.719  51.497
97109W        W89033  17.270  19.253  52.420
97110W        W89034   3.746  20.761  51.515
97111W        W89035  17.230  45.686  50.138
97112W        W89036  11.777  20.251  49.707
97113W        W89037  32.232  16.741  53.328
97114W        W89038  10.268   4.244  51.058
97115W        W89039   5.248  37.214  51.497
97116W        W89040  28.243   1.779  53.323
97117W        W89041  37.727  32.733  49.691
97118W        W89042  20.250  16.746  52.427
97119W        W89043  30.228  31.218  49.699
97120W        W89044  25.211  19.742  50.141
97121W        W89045  25.715  13.759  53.321
97122W        W89046  32.697  16.730  49.694
97123W        W89047   0.796   1.778  50.578
97124W        W89048  39.722  15.762  51.979
97125W        W89049   6.757  30.749  52.883
97126W        W89050   6.765  42.684  52.421
97127W        W89051  36.197  33.229  53.326
97128W        W89052   0.286  43.722  52.423
97129W        W89053  40.188  17.255  49.680
97130W        W89054  46.219  23.246  50.585
97131W        W89055  29.704  48.205  50.602
97132W        W89056  28.732  29.743  52.900
97133W        W89057   5.275  19.250  52.442
97134W        W89058   2.262  18.261  50.600
97135W        W89059  31.733  44.726  51.528
97136W        W89060  11.763  45.188  52.423
97137W        W89061  35.225  17.262  49.678
97138W        W89062  22.740  32.226  50.143
97139W        W89063  44.191  30.719  51.525
97140W        W89064  23.255  12.768  50.587
97141W        W89065  20.219  35.233  51.057
97142W        W89066   1.786  35.220  51.969
97143W        W89067   9.257  22.737  50.160
97144W        W89068  28.725  32.225  50.588
97145W        W89069   6.759   3.271  51.527
97146W        W89070  26.746  47.208  51.072
97147W        W89071  31.212  10.239  52.863
97148W        W89072  30.724  40.217  53.810
97149W        W89073  20.730  15.248  53.810
97150W        W89074  24.241   4.277  53.792
97151W        W89075  29.724  33.715  51.522
97152W        W89076  46.711   3.289  51.528
97153W        W89077  38.694   6.762  52.410
97154W        W89078  34.197  13.243  51.952
97155W        W89079  31.721  17.233  50.591
97156W        W89080  23.225  47.186  51.077
97157W        W89081  25.223  11.760  52.439
97158W        W89082  38.716  33.711  53.778
97159W        W89083  41.201  23.714  50.162
97160W        W89084  45.194  31.699  51.065
97161W        W89085  33.738  40.227  51.527
97162W        W89086  25.741  45.694  52.428
97163W        W89087  29.203   5.741  53.324
97164W        W89088  13.765  25.737  52.421
97165W        W89089  33.200  21.741  52.441
97166W        W89090   4.266  41.210  49.676
97167W        W89091  41.193  19.256  52.867
97168W        W89092  30.724  46.191  51.986
97169W        W89093  10.763   5.250  51.505
97170W        W89094  46.207  37.232  51.987
97171W        W89095  16.232  19.723  51.040
97172W        W89096  18.729  16.246  50.593
97173W        W89097  38.719  25.720  50.588
97174W        W89098  33.720   5.763  51.960
97175W        W89099  32.706  12.236  52.859
97176W        W89100  13.730  48.185  49.670
97177W        W89101  12.751  40.685  53.342
97178W        W89102  10.236  37.223  53.799
97179W        W89103  19.238   2.277  52.881
97180W        W89104   7.248  23.758  51.044
97181W        W89105  16.746  15.734  52.446
97182W        W89106  30.724  35.219  51.077
97183W        W89107  18.262  10.753  50.579
97184W        W89108  20.736  16.756  50.602
97185W        W89109  21.235  19.748  49.703
97186W        W89110  24.234  42.225  49.668
97187W        W89111  17.769  21.727  51.951
97188W        W89112  29.213  33.729  49.671
97189W        W89113  32.235  13.738  51.073
97190W        W89114  35.715  32.744  50.610
97191W        W89115  22.751  15.263  53.321
97192W        W89116   2.769  44.701  49.676
97193W        W89117   3.275  11.767  49.688
97194W        W89118  36.706  38.194  50.578
97195W        W89119  13.728   4.770  51.517
97196W        W89120   7.247   8.277  51.531
97197W        W89121  17.749  11.252  52.433
97198W        W89122  11.747  10.754  53.326
97199W        W89123  43.680  30.228  50.600
97200W        W89124  21.252   8.774  50.134
97201W        W89125  16.761  21.725  52.408
97202W        W89126   7.761   7.741  50.603
97203W        W89127  20.719  22.717  52.418
97204W        W89128   8.264  23.745  51.980
97205W        W89129   8.274   3.276  51.525
97206W        W89130  15.255  13.277  51.507
97207W        W89131  21.226  40.230  53.353
97208W        W89132  34.220  16.268  51.970
97209W        W89133  41.214  39.696  53.798
97210W        W89134  43.226   7.774  52.871
97211W        W89135  39.711  40.188  53.332
97212W        W89136  33.714  16.771  49.691
97213W        W89137  41.694  42.190  52.404
97214W        W89138  44.697  13.229  51.059
97215W        W89139  21.726  20.752  52.420
97216W        W89140  27.242  31.203  50.164
97217W        W89141  48.191  19.757  50.158
97218W        W89142  41.701  35.703  53.354
97219W        W89143  38.705  46.198  52.432
97220W        W89144   8.253  31.229  52.439
97221W        W89145  32.734  34.717  51.527
97222W        W89146  40.202  21.730  49.684
97223W        W89147  45.212  21.221  51.037
97224W        W89148  30.732  15.244  52.866
97225W        W89149  25.714  35.209  52.898
97226W        W89150   8.737  25.709  50.605
97227W        W89151  45.681  38.723  53.775
97228W        W89152  39.700  24.223  50.121
97229W        W89153  17.254  16.230  52.407
97230W        W89154  26.250  22.740  50.612
97231W        W89155  36.728  45.709  49.693
97232W        W89156  39.211  15.227  51.512
97233W        W89157  29.247  41.219  51.059
97234W        W89158  34.731  41.217  49.699
97235W        W89159   5.753  33.236  53.337
97236W        W89160  36.702  42.713  52.867
97237W        W89161  35.200  41.216  51.042
97238W        W89162  47.693  11.778  52.417
97239W        W89163   3.776   1.795  52.425
97240W        W89164  36.200  28.252  51.955
97241W        W89165  13.755  14.262  53.359
97242W        W89166  17.230  17.736  49.685
97243W        W89167  35.698  25.728  51.981
97244W        W89168  42.727  22.236  51.965
97245W        W89169  15.725   3.747  52.423
97246W        W89170   9.750  18.254  50.581
97247W        W89171  44.208  27.235  53.339
97248W        W89172  43.693  19.745  51.527
97249W        W89173  12.272   4.278  50.593
97250W        W89174  40.202   3.258  52.894
97251W        W89175  11.271  32.238  51.041
97252W        W89176  11.246  27.714  51.947
97253W        W89177  12.777  46.686  50.620
97254W        W89178  15.249  19.748  53.354
97255W        W89179  25.743  41.719  51.965
97256W        W89180  41.189   9.736  51.494
97257W        W89181   4.777  27.708  52.881
97258W        W89182  18.248   7.273  52.860
97259W        W89183  46.178  44.722  53.792
97260W        W89184  12.260  40.190  53.357
97261W        W89185  21.743   5.261  53.340
97262W        W89186  33.720   9.260  50.586
97263W        W89187  48.197   7.745  53.798
97264W        W89188  12.755  43.222  50.151
97265W        W89189   3.771  12.245  52.413
97266W        W89190  45.194  35.228  50.619
97267W        W89191  13.775  20.249  49.683
97268W        W89192  39.700  29.734  52.422
97269W        W89193  47.179  15.755  50.142
97270W        W89194  27.715   1.759  51.044
97271W        W89195  38.235  32.703  50.580
97272W        W89196  20.227  23.232  51.071
97273W        W89197   9.276  37.717  52.871
97274W        W89198  13.754  21.258  51.513
97275W        W89199  28.212   8.267  52.404
97276W        W89200  28.738  34.201  51.971
97277W        W89201  23.217  34.237  51.068
97278W        W89202  43.695  22.714  49.685
97279W        W89203  17.726  48.189  51.974
97280W        W89204  21.733  19.223  50.125
97281W        W89205  41.694  20.228  51.533
97282W        W89206  33.243  10.242  52.418
97283W        W89207   9.770  18.268  51.497
97284W        W89208   1.759  12.731  51.947
97285W        W89209   8.748  23.751  53.803
97286W        W89210  27.216  25.757  53.805
97287W        W89211   6.260  21.739  53.330
97288W        W89212  38.733  33.211  50.591
97289W        W89213  47.216   1.269  50.151
97290W        W89214   8.244  29.214  51.951
97291W        W89215  18.744  23.733  50.140
97292W        W89216  37.200  44.680  53.813
97293W        W89217  15.756  42.703  52.874
97294W        W89218  46.701  45.206  52.867
97295W        W89219   6.745   5.273  49.672
97296W        W89220  14.261  31.208  51.048
97297W        W89221  40.704  23.249  51.516
97298W        W89222  21.747  16.725  53.343
97299W        W89223  25.258  23.239  51.982
97300W        W89224   0.274  45.219  53.810
97301W        W89225  30.731  34.210  52.881
97302W        W89226  28.252  15.233  49.696
97303W        W89227   0.752  13.731  51.510
97304W        W89228   1.257  37.718  50.595
97305W        W89229   1.779  29.718  52.447
97306W        W89230   5.757   0.780  50.609
97307W        W89231  23.212  30.210  50.591
97308W        W89232  32.231  34.229  51.061
97309W        W89233  28.205  46.682  53.330
97310W        W89234   3.757   1.782  52.894
97311W        W89235   9.238  33.211  49.699
97312W        W89236   4.760  41.702  49.674
97313W        W89237  24.732  38.188  50.153
97314W        W89238  27.220  48.220  53.360
97315W        W89239  46.189  26.742  49.673
97316W        W89240  46.690  32.735  51.504
97317W        W89241  26.725  10.274  49.670
97318W        W89242  16.259  28.250  52.860
97319W        W89243  23.734   5.253  49.702
97320W        W89244   1.270  12.742  50.134
97321W        W89245  27.718  38.229  51.067
97322W        W89246  47.689  25.255  53.802
97323W        W89247  27.740  35.714  51.525
97324W        W89248   1.284  38.217  51.500
97325W        W89249   3.283  29.207  53.353
97326W        W89250  39.704  33.218  52.887
97327W        W89251  19.252   3.277  49.703
97328W        W89252  22.237  47.204  52.438
97329W        W89253  42.716  26.745  50.580
97330W        W89254  39.727   0.263  50.122
97331W        W89255  12.755  29.737  49.704
97332W        W89256   7.266  41.713  50.599
97333W        W89257  10.254  23.245  51.069
97334W        W89258  40.185  13.278  52.869
97335W        W89259   1.254  44.196  50.584
97336W        W89260  27.239  41.720  52.428
97337W        W89261  41.713  33.716  53.788
97338W        W89262  19.248  40.732  52.882
97339W        W89263   1.772  20.728  49.687
97340W        W89264  42.220  30.215  49.706
97341W        W89265  11.776   5.788  50.156
97342W        W89266   0.281  47.176  51.526
97343W        W89267  28.225  16.256  52.440
97344W        W89268  12.734  43.680  52.879
97345W        W89269  34.742  17.233  51.049
97346W        W89270  13.238  15.233  53.340
97347W        W89271   3.271  38.235  51.992
97348W        W89272  47.700   7.761  51.501
97349W        W89273   0.778  29.739  51.045
97350W        W89274  10.763   7.258  53.354
97351W        W89275  15.236  11.265  52.447
97352W        W89276  27.731  39.732  52.876
97353W        W89277   9.784   6.761  53.814
97354W        W89278  31.219  34.211  51.078
97355W        W89279  47.675  11.756  50.599
97356W        W89280   8.282  23.242  51.526
97357W        W89281  27.752  33.703  49.707
97358W        W89282  13.252  23.240  49.686
97359W        W89283  22.250  36.728  49.670
97360W        W89284  17.268  18.257  52.421
97361W        W89285   2.764  15.264  50.610
97362W        W89286   8.247  39.731  51.516
97363W        W89287  23.215  26.214  52.438
97364W        W89288  34.718  34.216  49.678
97365W        W89289  21.745  29.202  52.413
97366W        W89290  24.227  34.725  52.888
97367W        W89291  26.244  16.764  52.875
97368W        W89292  11.751   0.792  49.680
97369W        W89293  33.199   0.764  53.332
97370W        W89294   8.263  12.775  52.403
97371W        W89295   8.282  46.691  52.881
97372W        W89296  37.725  10.781  53.332
97373W        W89297  32.211   5.776  52.868
97374W        W89298  32.213  46.678  52.446
97375W        W89299  27.707   0.777  51.045
97376W        W89300   4.750  36.240  51.523
97377W        W89301  11.263  36.722  53.792
97378W        W89302  23.221  30.245  52.421
97379W        W89303  40.709  38.730  51.055
97380W        W89304   6.771  46.702  52.403
97381W        W89305  43.216  30.727  50.125
97382W        W89306  24.755  45.193  53.810
97383W        W89307   7.258  25.714  51.522
97384W        W89308  13.242  15.233  51.047
97385W        W89309  22.256  22.714  50.604
97386W        W89310   9.736  44.685  51.522
97387W        W89311   2.247  36.700  53.797
97388W        W89312  31.712   0.772  51.531
97389W        W89313   8.754  31.203  50.140
97390W        W89314   7.780   9.240  51.498
97391W        W89315  46.675  35.207  51.490
97392W        W89316  47.185   7.760  53.815
97393W        W89317  39.720  33.700  51.507
97394W        W89318  33.239   2.282  52.411
97395W        W89319  48.203  10.273  51.528
97396W        W89320  30.210  14.765  52.440
97397W        W89321  14.233  45.218  53.809
97398W        W89322  39.189  35.716  49.704
97399W        W89323  37.718   0.771  50.610
97400W        W89324  44.217  18.746  52.442
97401W        W89325   4.290  22.719  50.140
97402W        W89326  15.274  28.252  53.361
97403W        W89327  18.253  20.264  52.890
97404W        W89328   7.785  33.236  50.608
97405W        W89329  48.183   0.274  52.867
97406W        W89330   0.791  18.247  51.513
97407W        W89331  23.759  17.730  51.064
97408W        W89332  14.249  33.231  51.990
97409W        W89333  14.228   1.766  51.069
97410W        W89334  38.701   3.773  52.862
97411W        W89335  28.714  24.212  50.619
97412W        W89336  39.224   8.782  51.063
97413W        W89337  12.745  18.263  50.122
97414W        W89338  34.700  31.708  49.706
97415W        W89339  23.223  44.711  50.156
97416W        W89340  40.726  18.264  50.585
97417W        W89341   4.761  35.201  49.682
97418W        W89342   4.774  47.210  49.680
97419W        W89343  12.245   7.255  50.593
97420W        W89344  31.222  22.732  51.494
97421W        W89345  32.227   4.275  51.512
97422W        W89346  29.743  21.733  51.967
97423W        W89347   4.274   1.782  51.962
97424W        W89348  13.254  15.759  49.709
97425W        W89349   2.280   1.764  52.411
97426W        W89350  42.692  15.731  51.065
97427W        W89351  30.746   4.746  51.986
97428W        W89352  32.724  33.723  50.621
97429W        W89353  32.699   8.740  52.863
97430W        W89354   9.739  27.223  51.958
97431W        W89355  43.693  15.273  50.621
97432W        W89356  27.710   4.274  51.947
97433W        W89357  29.751  19.230  50.578
97434W        W89358   8.758  47.191  50.127
97435W        W89359  45.711  36.219  52.879
97436W        W89360  29.729  44.712  50.156
97437W        W89361   2.274  47.685  50.580
97438W        W89362  36.227  16.768  50.619
97439W        W89363  16.751  39.196  52.428
97440W        W89364  23.235   0.275  53.790
97441W        W89365  15.226  12.736  49.668
97442W        W89366  26.718  45.179  50.611
97443W        W89367   1.254  15.732  52.889
97444W        W89368  34.739  26.246  51.074
97445W        W89369  34.234   7.269  50.124
97446W        W89370   0.262  42.181  50.158
97447W        W89371  47.189  22.256  53.328
97448W        W89372  42.703  35.731  51.506
97449W        W89373  26.732  16.753  51.054
97450W        W89374   3.292  22.751  52.899
97451W        W89375  30.226  46.686  49.678
97452W        W89376  45.682   4.251  53.791
97453W        W89377  18.263  48.203  51.038
97454W        W89378   8.269   0.797  50.153
97455W        W89379   4.293  19.263  53.361
97456W        W89380  24.240  35.207  53.774
97457W        W89381  12.736  40.233  51.961
97458W        W89382  31.200  16.751  52.413
97459W        W89383  16.244   1.284  49.668
97460W        W89384   9.279  18.748  51.509
97461W        W89385  32.739  36.233  52.426
97462W        W89386  14.764   5.249  51.979
97463W        W89387  31.234  15.230  50.581
97464W        W89388   8.758  42.191  51.523
97465W        W89389   4.745  13.727  51.532
97466W        W89390  36.737  23.758  53.360
97467W        W89391  21.716  18.762  52.902
97468W        W89392   0.278  41.214  52.898
97469W        W89393  34.698  24.745  51.963
97470W        W89394  40.716   0.283  53.340
97471W        W89395  47.217  23.257  49.696
97472W        W89396  40.709  36.238  52.890
97473W        W89397  45.697  33.697  51.499
97474W        W89398  23.234   8.737  52.870
97475W        W89399   5.243  22.728  51.528
97476W        W89400  31.723  39.230  53.316
97477W        W89401   7.757  47.672  50.595
97478W        W89402  40.686  13.751  51.064
97479W        W89403  17.765  12.772  49.703
97480W        W89404  18.252  13.254  50.157
97481W        W89405  38.718  24.254  53.805
97482W        W89406   8.277  40.709  50.581
97483W        W89407   2.254  43.213  52.430
97484W        W89408   7.278   0.783  51.967
97485W        W89409  46.681  10.740  50.588
97486W        W89410  23.237  21.726  53.338
97487W        W89411   5.283  34.201  52.883
97488W        W89412  11.278  41.207  52.883
97489W        W89413  28.212  43.204  53.334
97490W        W89414  25.731  31.213  53.325
97491W        W89415  14.745   4.759  51.520
97492W        W89416  45.187   2.253  50.152
97493W        W89417  40.226  31.725  51.053
97494W        W89418  39.209   0.790  51.049
97495W        W89419  14.267  14.269  51.043
97496W        W89420  41.201  25.233  50.608
97497W        W89421  16.759   6.241  53.800
97498W        W89422  19.248  32.228  53.793
97499W        W89423  41.709   1.768  52.437
97500W        W89424   6.770  10.245  51.955
97501W        W89425  33.199   5.750  53.797
97502W        W89426  12.253  12.745  50.602
97503W        W89427  15.747  40.733  51.953
97504W        W89428  28.215  33.731  50.121
97505W        W89429  16.735   7.250  49.682
97506W        W89430  11.250  45.683  51.949
97507W        W89431  28.740  46.689  49.709
97508W        W89432  21.756   5.288  49.705
97509W        W89433  25.214   7.243  50.148
97510W        W89434  11.760  42.715  53.340
97511W        W89435   0.262  18.727  52.859
97512W        W89436  24.757  27.233  51.065
97513W        W89437  18.741  25.257  51.988
97514W        W89438  28.227  25.228  53.780
97515W        W89439  48.175  36.203  53.356
97516W        W89440  34.216  28.237  53.344
97517W        W89441  20.245  35.728  52.417
97518W        W89442  27.219  17.748  50.601
97519W        W89443  38.222  25.243  49.685
97520W        W89444   2.765  33.729  50.139
97521W        W89445  39.725   0.289  53.323
97522W        W89446  15.243  36.717  50.132
97523W        W89447  14.772  43.194  51.074
97524W        W89448  41.221  17.730  50.131
97525W        W89449  35.239  40.683  51.952
97526W        W89450  33.718  16.267  51.987
97527W        W89451  23.247  27.749  51.507
97528W        W89452  30.207   1.248  51.049
97529W        W89453  31.243  37.234  51.992
97530W        W89454   5.276  38.704  53.785
97531W        W89455  44.187   4.279  52.892
97532W        W89456  24.245  33.697  52.859
97533W        W89457  36.721   1.786  52.415
97534W        W89458  27.242  40.205  50.137
97535W        W89459   7.741   4.785  53.797
97536W        W89460  43.195  42.701  51.043
97537W        W89461   9.761  44.206  51.977
97538W        W89462  46.207  16.268  51.522
97539W        W89463   6.261  30.710  53.801
97540W        W89464  26.242   4.782  53.316
97541W        W89465  35.719  33.241  51.034
97542W        W89466   4.282  11.247  50.606
97543W        W89467  12.248   7.267  53.813
97544W        W89468  36.201  37.214  51.497
97545W        W89469   3.266  19.228  53.790
97546W        W89470  21.259  23.726  53.788
97547W        W89471  34.202   6.788  51.528
97548W        W89472  47.687  16.742  52.423
97549W        W89473  31.745  19.738  51.529
97550W        W89474  19.752  37.696  51.075
97551W        W89475   2.789  32.199  51.952
97552W        W89476  38.704  20.737  51.529
97553W        W89477  18.259  39.212  51.972
97554W        W89478  45.709   0.781  49.687
97555W        W89479   0.257  33.204  51.045
97556W        W89480  12.778  27.717  51.985
97557W        W89481  36.731  26.718  52.903
97558W        W89482  44.701  46.709  50.163
97559W        W89483  23.248  15.226  51.979
97560W        W89484   6.283  15.243  53.338
97561W        W89485  21.753  48.191  53.356
97562W        W89486  34.232   2.248  52.436
97563W        W89487  20.261  11.231  53.325
97564W        W89488  21.715  10.277  50.580
97565W        W89489  36.236   2.292  51.049
97566W        W89490  12.752  48.195  49.709
97567W        W89491  12.273   9.260  51.966
97568W        W89492   5.757  29.202  50.150
97569W        W89493  11.769  41.688  53.337
97570W        W89494  20.716  26.253  50.605
97571W        W89495  33.712  23.249  51.060
97572W        W89496  29.218   8.750  50.139
97573W        W89497   9.249   3.764  52.419
97574W        W89498   1.294  37.694  53.354
97575W        W89499  11.273  22.235  51.491
97576W        W89500  10.235  38.208  49.690
97577W        W89501  19.223  26.245  53.325
97578W        W89502  46.695  41.187  53.778
97579W        W89503  36.707   2.761  50.161
97580W        W89504  22.256  12.746  50.154
97581W        W89505  46.714  46.720  51.522
97582W        W89506  22.248  12.737  51.052
97583W        W89507  12.774   3.787  52.434
97584W        W89508   3.279  36.203  53.358
97585W        W89509  26.250  24.714  51.957
97586W        W89510  35.692  39.721  53.773
97587W        W89511  42.723  40.702  51.520
97588W        W89512   4.786  37.699  51.504
97589W        W89513  39.707  40.703  51.059
97590W        W89514  36.237  27.231  52.420
97591W        W89515   9.782  15.747  50.121
97592W        W89516  45.213  46.210  52.444
97593W        W89517  23.716   7.763  53.348
97594W        W89518   8.739  38.713  51.067
97595W        W89519  40.683  37.238  53.795
97596W        W89520  24.220  30.711  52.427
97597W        W89521  33.721  40.185  52.418
97598W        W89522  24.248  37.726  50.588
97599W        W89523   4.274   2.277  51.989
97600W        W89524  41.699   7.769  50.614
97601W        W89525  38.232  15.725  53.350
97602W        W89526  44.214  29.719  50.140
97603W        W89527  28.710   0.769  53.331
97604W        W89528   8.761  34.201  53.806
97605W        W89529  26.707   0.754  49.672
97606W        W89530   7.284  28.735  53.774
97607W        W89531  27.723  30.228  50.622
97608W        W89532   4.758  33.201  50.122
97609W        W89533   5.748  29.222  51.037
97610W        W89534  17.753  18.768  53.325
97611W        W89535   2.287  42.184  51.991
97612W        W89536  24.723   0.790  53.786
97613W        W89537   8.762  40.726  50.136
97614W        W89538  30.225  41.188  50.130
97615W        W89539  29.250  15.263  51.500
97616W        W89540  12.775   9.774  52.891
97617W        W89541  16.756  41.716  50.585
97618W        W89542  11.735  40.210  53.799
97619W        W89543   8.266  25.745  51.493
97620W        W89544  24.223  19.252  49.704
97621W        W89545  27.219  17.739  50.141
97622W        W89546  30.701  36.200  50.603
97623W        W89547  12.749  11.767  50.582
97624W        W89548  47.684  22.236  51.989
97625W        W89549  11.771   7.274  52.429
97626W        W89550  41.685  41.197  50.154
97627W        W89551  48.197  24.720  51.534
97628W        W89552  38.232  14.727  53.786
97629W        W89553  14.238   4.775  53.336
97630W        W89554  15.244  40.716  52.883
97631W        W89555  29.234  17.264  52.406
97632W        W89556  46.696  23.735  53.350
97633W        W89557   4.269  38.187  53.784
97634W        W89558   0.787  39.734  51.037
97635W        W89559  34.238  24.712  52.871
97636W        W89560  21.757  35.237  51.075
97637W        W89561  36.197  27.211  49.702
97638W        W89562  43.211   9.737  53.777
97639W        W89563  20.744  45.704  53.358
97640W        W89564  17.269  42.222  53.325
97641W        W89565   8.739  46.706  51.524
97642W        W89566  24.721   2.273  51.978
97643W        W89567  43.218  26.733  52.892
97644W        W89568  18.764  47.716  52.413
97645W        W89569  20.749   3.745  51.057
97646W        W89570  38.190  16.261  53.787
97647W        W89571  17.760   0.289  51.058
97648W        W89572  28.744  13.258  52.862
97649W        W89573  46.685  27.710  51.992
97650W        W89574  32.204   0.257  53.354
97651W        W89575  24.229  21.261  49.702
97652W        W89576  40.715   1.771  52.436
97653W        W89577  27.226  13.240  53.327
97654W        W89578  14.258  37.222  51.492
97655W        W89579  38.211  25.754  53.813
97656W        W89580  13.736   3.771  51.948
97657W        W89581  25.712   3.291  53.318
97658W        W89582   6.241   7.264  53.342
97659W        W89583  23.234   1.277  53.790
97660W        W89584  43.187  40.702  52.421
97661W        W89585  10.234   6.752  53.806
97662W        W89586  12.271  35.740  51.962
97663W        W89587  40.203  44.215  51.511
97664W        W89588  19.754  25.250  53.814
97665W        W89589  46.711  47.697  50.606
97666W        W89590  43.703  25.753  53.324
97667W        W89591   2.253  43.713  50.613
97668W        W89592  46.177  14.733  53.792
97669W        W89593   6.749  13.744  52.902
97670W        W89594   1.778  14.253  50.147
97671W        W89595  14.762  34.209  51.060
97672W        W89596   1.789  23.737  49.689
97673W        W89597  29.205  39.207  50.145
97674W        W89598   0.762  29.202  52.441
97675W        W89599  22.224  47.678  50.588
97676W        W89600  12.260  28.737  50.139
97677W        W89601   4.262  17.266  53.798
97678W        W89602  24.221   8.744  50.122
97679W        W89603   9.739  31.700  49.709
97680W        W89604  22.247  17.753  51.984
97681W        W89605  15.757  27.237  49.701
97682W        W89606  45.185  38.192  52.884
97683W        W89607  13.278  14.245  50.601
97684W        W89608  44.206  33.727  53.321
97685W        W89609  21.760  27.707  53.317
97686W        W89610   8.285   1.263  51.525
97687W        W89611   5.243   5.256  51.061
97688W        W89612  31.719  17.244  52.414
97689W        W89613   6.769   4.755  49.665
97690W        W89614  24.244   0.794  51.501
97691W        W89615  42.729  16.725  50.619
97692W        W89616   3.755  19.756  51.970
97693W        W89617  45.686  20.227  53.815
97694W        W89618  11.745  12.251  51.040
97695W        W89619   3.276   3.766  51.947
97696W        W89620  31.712   6.749  53.349
97697W        W89621  48.201   4.785  50.601
97698W        W89622  13.267  11.235  49.679
97699W        W89623  21.739  25.720  52.880
97700W        W89624  47.194  19.226  49.679
97701W        W89625   8.778   6.284  50.602
97702W        W89626   5.790  13.272  51.509
97703W        W89627  11.274  31.713  52.872
97704W        W89628  44.700   5.274  51.053
97705W        W89629  35.225  35.193  52.883
97706W        W89630  13.767  20.730  51.951
97707W        W89631  44.726   6.244  51.988
97708W        W89632   9.762  31.707  52.408
97709W        W89633   1.769  34.698  51.049
97710W        W89634  18.234  24.223  52.870
97711W        W89635  40.216  27.734  49.706
97712W        W89636  15.731  24.228  52.870
97713W        W89637  22.740  31.724  51.530
97714W        W89638  24.218  27.731  50.138
97715W        W89639  25.722   5.741  50.589
97716W        W89640   3.269  28.750  53.357
97717W        W89641  35.695   2.277  51.504
97718W        W89642  35.228  25.209  53.794
97719W        W89643  32.229   4.272  52.441
97720W        W89644  34.213  20.722  50.136
97721W        W89645  14.274  20.740  50.152
97722W        W89646  44.197  27.241  51.045
97723W        W89647  27.753  12.743  50.154
97724W        W89648   4.780   5.284  51.989
97725W        W89649  13.276   3.792  53.792
97726W        W89650  12.745  26.727  50.156
97727W        W89651  30.745  15.264  51.051
97728W        W89652  32.699  47.190  51.070
97729W        W89653  47.207  33.214  51.990
97730W        W89654  38.692  46.187  53.793
97731W        W89655   8.286  35.698  51.527
97732W        W89656  24.743  35.206  51.063
97733W        W89657  11.739  24.253  50.162
97734W        W89658  29.720   9.744  50.609
97735W        W89659  37.210  19.755  50.586
97736W        W89660   9.269   2.781  51.496
97737W        W89661  14.764   2.253  53.817
97738W        W89662  41.689  27.214  50.128
97739W        W89663  16.772  37.717  50.152
97740W        W89664  44.712  26.229  50.596
97741W        W89665   6.754   0.777  52.426
97742W        W89666  45.688   5.286  52.862
97743W        W89667   1.767   0.288  52.417
97744W        W89668  16.227  33.216  50.598
97745W        W89669  15.754  20.258  50.616
97746W        W89670  46.223  28.235  49.692
97747W        W89671   7.742   0.275  51.518
97748W        W89672  13.241  40.188  50.161
97749W        W89673  34.707   3.764  50.142
97750W        W89674   8.760  48.199  49.703
97751W        W89675   1.786  47.209  51.494
97752W        W89676  21.226  44.209  50.130
97753W        W89677  17.751  29.215  50.596
97754W        W89678  32.726   6.785  50.594
97755W        W89679  25.727  30.721  52.886
97756W        W89680  24.736  27.747  51.043
97757W        W89681  24.258  25.718  53.317
97758W        W89682  42.192   4.768  50.604
97759W        W89683  32.709   1.788  53.316
97760W        W89684   9.748  17.747  51.955
97761W        W89685  21.730   4.783  51.971
97762W        W89686   1.780  30.210  53.773
97763W        W89687  22.263   3.745  51.074
97764W        W89688   8.283  26.245  52.868
97765W        W89689  23.739  40.198  51.075
97766W        W89690  17.222  15.246  53.341
97767W        W89691  17.245  15.774  52.869
97768W        W89692  27.218  16.733  51.078
97769W        W89693  18.746  42.227  50.613
97770W        W89694  10.735  14.269  51.064
97771W        W89695   5.770   9.734  52.875
97772W        W89696   4.766  14.251  53.799
97773W        W89697  20.225  16.265  52.898
97774W        W89698   3.758  42.700  50.134
97775W        W89699  38.188   7.758  50.125
97776W        W89700  18.723  32.708  50.615
97777W        W89701  41.687  39.193  53.786
97778W        W89702   8.255  17.737  53.349
97779W        W89703   8.286  38.237  50.164
97780W        W89704  11.766  40.720  52.406
97781W        W89705  37.714  25.221  53.347
97782W        W89706  35.730  12.761  52.439
97783W        W89707  25.753   9.776  51.968
97784W        W89708  15.238  12.246  51.047
97785W        W89709   6.767  43.701  53.793
97786W        W89710  21.715   9.763  51.525
97787W        W89711   7.240  10.739  51.077
97788W        W89712  42.195  46.176  52.905
97789W        W89713   2.779   9.278  53.350
97790W        W89714  19.230  30.706  52.904
97791W        W89715  48.171  40.705  53.324
97792W        W89716  35.721  17.740  51.947
97793W        W89717  34.238  36.240  51.049
97794W        W89718  28.750  37.199  49.688
97795W        W89719  46.677  43.719  51.068
97796W        W89720   8.272  33.701  51.503
97797W        W89721  26.716   5.763  53.815
97798W        W89722   5.754   9.271  51.991
97799W        W89723  17.755   4.786  51.040
97800W        W89724  42.181  18.226  52.865
97801W        W89725  43.185  43.218  51.049
97802W        W89726  16.258   0.293  50.141
97803W        W89727  30.230  33.724  52.413
97804W        W89728   4.245   5.761  50.610
97805W        W89729  20.231  16.273  52.425
97806W        W89730  25.754   5.790  53.807
97807W        W89731  42.223  39.200  51.962
97808W        W89732  23.212  47.716  50.156
97809W        W89733   8.249  31.723  53.796
97810W        W89734   1.773  39.710  51.962
97811W        W89735   4.266  39.690  50.122
97812W        W89736  32.710  36.718  52.442
97813W        W89737  35.739   2.753  49.691
97814W        W89738  35.727  11.765  50.124
97815W        W89739  30.211  24.733  51.044
97816W        W89740   8.257  11.758  53.334
97817W        W89741  21.237  12.274  50.580
97818W        W89742   5.773   9.247  50.580
97819W        W89743  29.205  46.220  49.664
97820W        W89744   4.786  27.214  50.604
97821W        W89745  15.729  16.237  51.976
97822W        W89746  35.710  10.269  50.622
97823W        W89747  24.759  10.758  51.978
97824W        W89748  40.193  44.202  51.063
97825W        W89749  32.218  17.268  49.706
97826W        W89750  41.229   2.790  50.165
97827W        W89751  47.203  12.747  52.422
97828W        W89752  31.220  26.722  52.446
97829W        W89753   4.275  33.735  49.668
97830W        W89754   2.784  15.260  52.861
97831W        W89755  12.767  28.219  52.441
97832W        W89756  39.725  26.242  53.360
97833W        W89757  25.752  45.716  49.673
97834W        W89758  30.231  18.730  51.060
97835W        W89759  32.734  39.224  50.152
97836W        W89760  11.256  31.228  53.330
97837W        W89761  24.229   0.793  49.699
97838W        W89762  13.749  41.713  53.320
97839W        W89763  28.708  44.687  49.696
97840W        W89764  37.737   9.760  53.793
97841W        W89765  28.742  37.720  51.036
97842W        W89766  14.254  37.228  52.422
97843W        W89767  15.237   7.245  49.666
97844W        W89768  45.711  21.217  51.038
97845W        W89769  30.209  18.743  53.813
97846W        W89770  12.762  33.233  50.615
97847W        W89771   3.778  47.688  51.510
97848W        W89772  27.729  43.682  51.970
97849W        W89773  47.677  10.746  50.586
97850W        W89774   7.243   6.284  52.403
97851W        W89775  20.235  32.697  53.797
97852W        W89776  46.704  25.745  53.347
97853W        W89777  17.235  25.721  50.133
97854W        W89778  23.724  27.709  51.074
97855W        W89779  28.223  21.233  51.054
97856W        W89780  32.722  21.725  51.044
97857W        W89781   7.272  42.211  53.360
97858W        W89782   3.278  36.736  52.436
97859W        W89783  38.234  33.713  52.872
97860W        W89784  46.711  47.198  49.702
97861W        W89785  32.231  39.707  53.331
97862W        W89786  38.700  32.729  52.866
97863W        W89787  33.239  45.215  50.129
97864W        W89788   4.251   4.275  51.965
97865W        W89789  32.735  31.718  52.417
97866W        W89790  18.243   4.761  50.619
97867W        W89791  18.754  31.744  52.437
97868W        W89792  35.717  45.713  51.077
97869W        W89793   8.767   7.774  53.796
97870W        W89794   4.772  19.726  53.781
97871W        W89795  15.268  41.714  50.611
97872W        W89796  12.270  32.724  50.605
97873W        W89797  22.232  38.212  49.683
97874W        W89798  30.748  47.176  50.143
97875W        W89799  46.220  48.209  49.679
97876W        W89800  18.749  24.722  51.078
97877W        W89801  33.208  10.750  51.041
97878W        W89802  34.726  23.247  49.675
97879W        W89803  28.250  21.747  51.982
97880W        W89804  41.186   2.296  51.044
97881W        W89805  21.764  17.251  51.974
97882W        W89806   8.245  18.262  50.160
97883W        W89807  14.731  16.758  51.063
97884W        W89808   3.755  32.700  52.867
97885W        W89809  47.175  19.750  52.869
97886W        W89810  48.213  19.230  52.865
97887W        W89811  39.201  36.220  52.885
97888W        W89812  41.730  35.193  52.404
97889W        W89813  16.766   2.794  50.157
97890W        W89814   5.743  20.757  51.530
97891W        W89815   4.744   2.791  50.579
97892W        W89816  36.709   9.265  53.331
97893W        W89817  46.220   4.288  51.952
97894W        W89818  38.720  15.772  51.975
97895W        W89819  11.272  37.215  53.357
97896W        W89820  14.774  26.740  51.529
97897W        W89821  12.266  15.755  52.865
97898W        W89822  31.708   7.751  53.322
97899W        W89823  31.729  27.229  53.336
97900W        W89824  45.198  14.276  53.775
97901W        W89825  34.715  34.714  51.958
97902W        W89826  42.221  16.233  53.345
97903W        W89827  38.731  17.227  52.404
97904W        W89828  10.271  44.699  50.142
97905W        W89829  34.694   4.284  51.057
97906W        W89830  24.246   3.786  52.903
97907W        W89831   8.245  40.207  49.666
97908W        W89832  38.707  27.736  51.530
97909W        W89833  24.719   9.254  53.789
97910W        W89834  22.747  42.182  51.062
97911W        W89835  42.182   7.777  52.875
97912W        W89836  22.225  35.203  53.357
97913W        W89837  37.189  15.231  53.316
97914W        W89838  43.228  46.711  51.526
97915W        W89839   0.767  14.766  53.339
97916W        W89840  19.745  32.722  49.679
97917W        W89841  22.218  36.716  53.776
97918W        W89842  17.763  16.230  51.045
97919W        W89843   9.763  27.247  51.038
97920W        W89844  41.191  16.267  51.978
97921W        W89845  10.273  37.208  52.875
97922W        W89846   9.767  40.218  53.348
97923W        W89847  16.747  30.238  49.666
97924W        W89848  31.739  20.764  51.512
97925W        W89849  27.248  39.727  51.946
97926W        W89850  48.205  25.225  49.696
97927W        W89851  38.232  13.747  49.682
97928W        W89852  26.216  41.682  51.057
97929W        W89853  33.709   8.253  52.427
97930W        W89854  29.246  26.727  52.404
97931W        W89855   0.777  24.230  49.668
97932W        W89856  39.687  32.708  51.047
97933W        W89857  37.734  39.206  50.143
97934W        W89858  21.216   2.279  51.963
97935W        W89859  47.699  27.747  50.159
97936W        W89860  32.206   3.275  53.338
97937W        W89861  11.744  17.259  52.885
97938W        W89862   8.780  45.722  53.348
97939W        W89863  23.255  25.756  52.882
97940W        W89864  16.772   1.781  51.053
97941W        W89865  47.202  28.245  52.404
97942W        W89866  12.271  22.225  51.982
97943W        W89867  41.713  25.738  51.075
97944W        W89868  45.690  10.234  50.144
97945W        W89869  30.247  39.205  49.672
97946W        W89870  44.697  40.726  53.340
97947W        W89871  42.718  36.704  53.322
97948W        W89872   7.288   8.250  53.780
97949W        W89873  36.212  10.770  52.442
97950W        W89874  43.679  10.754  53.774
97951W        W89875  11.752  12.246  52.860
97952W        W89876  44.188  14.768  51.069
97953W        W89877  46.680  13.758  52.868
97954W        W89878  39.703  25.755  51.060
97955W        W89879  35.724  23.732  53.802
97956W        W89880   0.797  45.225  50.592
97957W        W89881   8.736  24.728  52.409
97958W        W89882  10.275  36.222  52.434
97959W        W89883  31.733  36.232  51.519
97960W        W89884   8.769   4.756  50.123
97961W        W89885  18.724  42.690  50.585
97962W        W89886  33.224   8.783  50.132
97963W        W89887   3.775   0.750  53.323
97964W        W89888  33.202  20.217  51.971
97965W        W89889  21.218   6.254  51.500
97966W        W89890  39.705  18.760  51.530
97967W        W89891  35.202   1.283  53.331
97968W        W89892   4.774  31.234  51.509
97969W        W89893  38.734  37.207  49.690
97970W        W89894  25.249  11.271  51.040
97971W        W89895  47.678  47.185  49.680
97972W        W89896  25.736  21.215  53.805
97973W        W89897  16.266  48.180  52.901
97974W        W89898  13.246  44.687  50.127
97975W        W89899   5.779  12.761  52.414
97976W        W89900  38.720   7.255  52.407
97977W        W89901   7.786  19.247  51.527
97978W        W89902  17.734  32.215  49.696
97979W        W89903  36.728  34.217  53.322
97980W        W89904  46.206   1.296  52.884
97981W        W89905  32.235  12.761  52.441
97982W        W89906  41.686  24.218  53.793
97983W        W89907   1.748  42.703  52.439
97984W        W89908  46.193  42.704  50.589
97985W        W89909  38.705  18.733  50.144
97986W        W89910   7.275  23.256  51.957
97987W        W89911  20.224  38.231  53.329
97988W        W89912  38.228  29.237  52.404
97989W        W89913   1.761   4.743  50.133
97990W        W89914  24.215   8.250  50.607
97991W        W89915  39.720  44.695  53.355
97992W        W89916   2.248  21.228  51.514
97993W        W89917   5.249  16.227  53.351
97994W        W89918  35.213   2.768  50.615
97995W        W89919  45.176   9.240  53.787
97996W        W89920  13.244  17.253  51.079
97997W        W89921  43.680  14.234  53.774
97998W        W89922   6.762  24.223  51.973
97999W        W89923  21.717  10.267  50.159
98000W        W89924  29.703   7.273  53.316
98001W        W89925   2.789  39.218  50.143
98002W        W89926  43.698  28.721  51.490
98003W        W89927  40.684   5.284  52.895
98004W        W89928  41.716   8.781  52.885
98005W        W89929  35.720  32.243  49.691
98006W        W89930   6.751  42.699  51.044
98007W        W89931   6.265   7.273  51.514
98008W        W89932  19.763   4.288  50.131
98009W        W89933   0.277  27.230  53.785
98010W        W89934   5.780  34.740  52.863
98011W        W89935  21.226  11.251  50.130
98012W        W89936  20.762   7.757  53.777
98013W        W89937  39.727  31.217  53.334
98014W        W89938  35.202   7.775  50.608
98015W        W89939   2.746   8.250  52.883
98016W        W89940   5.783  19.247  52.888
98017W        W89941  38.211  26.235  52.428
98018W        W89942  26.216  29.213  53.809
98019W        W89943  33.723  19.254  51.988
98020W        W89944  22.720  25.223  50.122
98021W        W89945  32.743  40.197  49.686
98022W        W89946  22.745   8.278  53.352
98023W        W89947  47.707  15.763  53.331
98024W        W89948  18.760   0.787  53.806
98025W        W89949   5.283   8.779  52.879
98026W        W89950  31.244  43.192  51.034
98027W        W89951  32.725  36.692  53.806
98028W        W89952  36.719   3.794  53.798
98029W        W89953   8.238  47.716  51.046
98030W        W89954  36.730  17.226  50.134
98031W        W89955  37.229   2.286  51.498
98032W        W89956  29.225  40.709  50.617
98033W        W89957   4.787  40.213  51.524
98034W        W89958   5.754   5.280  50.615
98035W        W89959   7.771  42.681  52.896
98036W        W89960  13.767  38.229  53.317
98037W        W89961  21.727  10.246  49.682
98038W        W89962  30.229  44.684  53.777
98039W        W89963  36.228   2.272  51.948
98040W        W89964  20.227  11.753  50.618
98041W        W89965  16.224  31.735  51.969
98042W        W89966  26.724  47.719  50.606
98043W        W89967  14.260  13.743  50.597
98044W        W89968  17.242  33.219  52.902
98045W        W89969   6.767  47.209  53.336
98046W        W89970  21.263  37.199  51.965
98047W        W89971  44.696  28.249  51.508
98048W        W89972  41.226  36.226  49.686
98049W        W89973  31.727  33.209  50.154
98050W        W89974  23.249  10.775  51.989
98051W        W89975  15.768  47.718  51.969
98052W        W89976  24.247  42.214  51.984
98053W        W89977  31.238  23.249  53.352
98054W        W89978  44.681   9.748  53.782
98055W        W89979  39.689  30.246  53.339
98056W        W89980  21.739  34.718  52.405
98057W        W89981  43.224  46.681  52.895
98058W        W89982  19.262  29.712  51.527
98059W        W89983   7.750  42.728  50.124
98060W        W89984  24.731   0.269  51.508
98061W        W89985  46.187   9.245  53.812
98062W        W89986  14.762  36.709  52.416
98063W        W89987  39.203   9.236  50.136
98064W        W89988  29.747   2.784  50.617
98065W        W89989   4.749  31.699  52.411
98066W        W89990  29.239   9.245  49.687
98067W        W89991  27.208  29.204  51.043
98068W        W89992  47.701  10.749  50.125
98069W        W89993  30.707   4.752  53.789
98070W        W89994  15.244   2.257  52.417
98071W        W89995  12.242  32.698  52.878
98072W        W89996  40.202  18.750  51.530
98073W        W89997   6.247  28.245  53.319
98074W        W89998   3.267   0.275  53.803
98075W        W89999  25.744  18.269  51.040
98076W        W90000  16.742  37.204  49.666
98077W        W90001  47.680  46.679  52.883
98078W        W90002   3.279  41.209  51.976
98079W        W90003   3.765  48.177  50.151
98080W        W90004  21.743  13.762  50.156
98081W        W90005  47.173   2.770  51.952
98082W        W90006  19.751  31.211  50.126
98083W        W90007  28.714  33.222  53.328
98084W        W90008  44.224  37.707  51.044
98085W        W90009  15.263   3.764  51.054
98086W        W90010  20.737  14.763  52.875
98087W        W90011  28.248  41.224  51.045
98088W        W90012  28.205  25.223  51.073
98089W        W90013  43.710  33.220  50.578
98090W        W90014  44.689  26.730  53.340
98091W        W90015  24.239  45.677  53.800
98092W        W90016  31.702  18.745  49.668
98093W        W90017   0.268  25.719  52.893
98094W        W90018  23.758   2.770  51.071
98095W        W90019   6.265  13.749  50.589
98096W        W90020  16.272  40.231  53.795
98097W        W90021  23.215  40.187  52.416
98098W        W90022  11.276  45.193  51.969
98099W        W90023  32.217  17.268  52.887
98100W        W90024  13.241  22.229  52.870
98101W        W90025   8.746   2.746  51.986
98102W        W90026  19.255  45.223  50.137
98103W        W90027  10.261  46.221  53.809
98104W        W90028  21.738  36.219  51.064
98105W        W90029  20.762  18.739  52.407
98106W        W90030  46.220  13.746  51.518
98107W        W90031  17.234  37.716  49.690
98108W        W90032  21.233  24.751  51.077
98109W        W90033  34.704  28.721  49.678
98110W        W90034  10.775  24.728  53.328
98111W        W90035   9.751   1.753  50.158
98112W        W90036   6.240  20.236  51.532
98113W        W90037  15.762   5.287  51.508
98114W        W90038  44.682  23.245  53.344
98115W        W90039  39.192  15.757  50.142
98116W        W90040   5.258  45.185  52.404
98117W        W90041   9.267  48.184  51.972
98118W        W90042   9.763  31.708  52.881
98119W        W90043  23.739  37.236  50.151
98120W        W90044  27.745   2.786  51.951
98121W        W90045  37.231  11.781  49.675
98122W        W90046  16.253   0.274  51.035
98123W        W90047  11.745  14.768  53.341
98124W        W90048  40.712  24.723  52.445
98125W        W90049   8.742  41.729  50.619
98126W        W90050  26.709   1.761  53.807
98127W        W90051  47.202  32.231  52.897
98128W        W90052  21.732  22.727  51.505
98129W        W90053  33.226  16.259  51.521
98130W        W90054  16.260  42.713  51.962
98131W        W90055   1.265  36.194  51.963
98132W        W90056  16.248  33.705  50.614
98133W        W90057  48.195  25.753  50.122
98134W        W90058  11.249  15.230  52.419
98135W        W90059  43.695  20.250  52.415
98136W        W90060  28.731  26.754  53.799
98137W        W90061  18.725   6.747  52.425
98138W        W90062  37.235  19.763  50.161
98139W        W90063  11.274   3.280  52.432
98140W        W90064  45.216  21.755  51.496
98141W        W90065   3.791  35.734  53.784
98142W        W90066   4.254  19.747  49.697
98143W        W90067   3.261  40.717  50.619
98144W        W90068  16.273  19.718  51.491
98145W        W90069  40.685  33.212  49.694
98146W        W90070   8.755  31.701  50.124
98147W        W90071  13.270  14.768  53.803
98148W        W90072  31.710  25.748  53.351
98149W        W90073  16.244  42.204  50.610
98150W        W90074  43.694  30.222  52.423
98151W        W90075  34.722  25.737  53.792
98152W        W90076  16.744  37.190  51.494
98153W        W90077  27.207  36.214  52.877
98154W        W90078   7.779  38.232  51.530
98155W        W90079  32.699   0.273  50.585
98156W        W90080  21.253  16.243  52.878
98157W        W90081  26.230  48.189  52.412
98158W        W90082  10.772  47.709  53.811
98159W        W90083  24.248  24.756  53.772
98160W        W90084  17.268  11.252  50.137
98161W        W90085  14.263  19.235  51.064
98162W        W90086   9.283  22.719  52.421
98163W        W90087  23.758  16.228  53.346
98164W        W90088  47.689  23.224  51.072
98165W        W90089   8.266  18.267  53.328
98166W        W90090  25.746  42.704  53.345
98167W        W90091   7.761   4.264  52.439
98168W        W90092  38.710  17.725  49.692
98169W        W90093  41.728  47.218  49.706
98170W        W90094  18.264  43.683  51.499
98171W        W90095  23.745  32.707  49.696
98172W        W90096   7.256  14.771  50.125
98173W        W90097  36.222  29.702  49.690
98174W        W90098  10.246  29.222  51.990
98175W        W90099  14.272  33.720  50.162
98176W        W90100  42.208  46.216  52.423
98177W        W90101  15.264   1.275  53.339
98178W        W90102   7.771   1.773  52.891
98179W        W90103  35.222  28.705  52.410
98180W        W90104  16.735  38.201  49.708
98181W        W90105   1.266   4.255  53.317
98182W        W90106  28.211  42.206  53.812
98183W        W90107  34.729  36.690  50.127
98184W        W90108  34.737  15.229  53.353
98185W        W90109  36.196  33.704  49.684
98186W        W90110  33.211  13.742  51.505
98187W        W90111   4.255  24.746  51.501
98188W        W90112  16.248  24.255  51.505
98189W        W90113  36.734  46.186  52.897
98190W        W90114  15.756  38.692  51.496
98191W        W90115  43.189  40.710  53.336
98192W        W90116   5.745  33.228  52.860
98193W        W90117  12.767  29.746  51.065
98194W        W90118   9.737   6.248  51.053
98195W        W90119   1.282  19.227  52.874
98196W        W90120   3.772   4.257  49.706
98197W        W90121  43.720  46.696  51.957
98198W        W90122  47.215  11.249  53.328
98199W        W90123  32.726  37.736  49.699
98200W        W90124  39.734  47.680  50.583
98201W        W90125  22.218  40.212  53.788
98202W        W90126  10.262   0.265  52.441
98203W        W90127  25.254  25.233  52.899
98204W        W90128  28.718  35.224  53.330
98205W        W90129   4.775  41.188  50.608
98206W        W90130  43.207  46.223  51.525
98207W        W90131  34.696  19.219  49.704
98208W        W90132  10.251  11.735  50.129
98209W        W90133   1.782  19.725  51.954
98210W        W90134  45.703   4.243  52.438
98211W        W90135  27.707  19.729  53.786
98212W        W90136   6.769   8.748  53.357
98213W        W90137  40.209  42.184  51.533
98214W        W90138  36.722  19.740  51.986
98215W        W90139   5.744  30.208  52.889
98216W        W90140  39.722   0.257  51.502
98217W        W90141  11.248  40.729  51.498
98218W        W90142  15.751  31.710  49.681
98219W        W90143  38.691  23.742  52.434
98220W        W90144  39.698  20.219  53.340
98221W        W90145   9.768  30.743  52.439
98222W        W90146   3.277  34.693  52.897
98223W        W90147  34.222  18.229  50.125
98224W        W90148  39.716  18.734  50.148
98225W        W90149  25.217  23.725  50.583
98226W        W90150   7.249   9.776  50.163
98227W        W90151  48.171  29.235  53.780
98228W        W90152  43.684  46.205  51.497
98229W        W90153  16.231  25.724  51.053
98230W        W90154  12.234  24.723  51.043
98231W        W90155   3.775   3.762  52.415
98232W        W90156  38.688   9.245  49.701
98233W        W90157  45.213  15.737  51.490
98234W        W90158  27.748  23.219  49.670
98235W        W90159  18.768  23.726  51.043
98236W        W90160   5.780  30.706  51.511
98237W        W90161  21.714  30.720  52.430
98238W        W90162   9.268  26.224  53.354
98239W        W90163  27.234  41.231  52.415
98240W        W90164  48.215  22.750  51.980
98241W        W90165   9.750  27.240  51.531
98242W        W90166  43.687  14.754  51.967
98243W        W90167  11.260   2.763  50.584
98244W        W90168  15.256  40.707  51.044
98245W        W90169   6.789   1.270  49.692
98246W        W90170  10.744  14.732  53.348
98247W        W90171  25.747  38.692  53.801
98248W        W90172  15.754  25.211  49.667
98249W        W90173   9.273  38.231  53.316
98250W        W90174  15.231  45.724  53.813
98251W        W90175  23.217  42.205  52.408
98252W        W90176  40.730  46.714  53.797
98253W        W90177  40.216  33.207  51.063
98254W        W90178  40.699  20.762  53.795
98255W        W90179  23.258  41.222  53.783
98256W        W90180  29.232   3.750  50.135
98257W        W90181  37.692  19.255  52.879
98258W        W90182  42.689  17.253  52.425
98259W        W90183   1.765  47.677  50.127
98260W        W90184   5.761  47.682  49.685
98261W        W90185  27.229  18.761  52.866
98262W        W90186  14.249  34.725  51.957
98263W        W90187  46.715   1.767  53.779
98264W        W90188  15.737   2.758  51.505
98265W        W90189  30.210  47.214  50.138
98266W        W90190   5.786  32.711  51.951
98267W        W90191   1.288  33.229  50.618
98268W        W90192  33.230  29.222  51.977
98269W        W90193  18.256  46.692  50.581
98270W        W90194  42.720  38.214  51.517
98271W        W90195  32.714  10.775  52.866
98272W        W90196  27.732  10.767  52.411
98273W        W90197   0.792  14.730  50.617
98274W        W90198  18.765  18.749  52.427
98275W        W90199  42.202  42.188  50.615
98276W        W90200   0.257   4.764  50.155
98277W        W90201   9.767  11.756  52.429
98278W        W90202  20.761  14.258  52.901
98279W        W90203  44.194  40.231  53.330
98280W        W90204  12.771  39.232  51.492
98281W        W90205   5.785  38.190  50.608
98282W        W90206   0.761  13.248  52.423
98283W        W90207  37.712   8.781  53.330
98284W        W90208  42.207  13.750  51.527
98285W        W90209   7.751  20.252  50.128
98286W        W90210  32.215   4.791  51.513
98287W        W90211   2.263  31.717  51.053
98288W        W90212  47.692  33.197  53.352
98289W        W90213  47.716  28.740  51.529
98290W        W90214   9.249   8.271  53.776
98291W        W90215  34.207  11.772  50.577
98292W        W90216   2.265  19.239  51.060
98293W        W90217   0.766   5.263  51.510
98294W        W90218  28.706  13.266  52.431
98295W        W90219  10.741  45.720  51.958
98296W        W90220  16.238  19.234  49.666
98297W        W90221   8.771  30.739  53.325
98298W        W90222   6.767  40.198  51.980
98299W        W90223  39.206  29.726  51.989
98300W        W90224  18.743  35.203  53.772
98301W        W90225  11.252  10.754  52.436
98302W        W90226  32.708   6.251  52.446
98303W        W90227  10.265   1.758  53.330
98304W        W90228   9.747  43.707  51.974
98305W        W90229  42.694  40.709  51.991
98306W        W90230  37.203  45.193  52.895
98307W        W90231  32.739  20.230  50.608
98308W        W90232  40.687  23.713  51.971
98309W        W90233  42.199  17.762  51.985
98310W        W90234  48.215  12.766  50.156
98311W        W90235  26.731  39.193  52.861
98312W        W90236  46.199  11.279  50.149
98313W        W90237  40.699  33.703  50.131
98314W        W90238   5.262  37.232  49.702
98315W        W90239  31.239  12.775  49.677
98316W        W90240  22.759  29.241  49.705
98317W        W90241  32.234  14.267  52.871
98318W        W90242  23.262   5.250  51.045
98319W        W90243  14.267  18.766  52.860
98320W        W90244   8.284  33.700  53.333
98321W        W90245  21.250   6.746  51.064
98322W        W90246  22.235  33.705  51.522
98323W        W90247  27.227  36.232  51.952
98324W        W90248  26.747  23.234  53.339
98325W        W90249  36.713  28.244  52.867
98326W        W90250  18.247  35.730  51.514
98327W        W90251  22.257   5.750  51.532
98328W        W90252  15.730   1.268  50.157
98329W        W90253  33.736  43.186  53.783
98330W        W90254  23.750  17.270  52.884
98331W        W90255   5.762  17.760  53.798
98332W        W90256  26.710  32.707  51.054
98333W        W90257   5.780  17.730  52.864
98334W        W90258   8.264  45.192  51.073
98335W        W90259  45.681  42.203  50.165
98336W        W90260  13.247  48.198  51.951
98337W        W90261  39.713  40.720  49.675
98338W        W90262  32.716  22.727  50.137
98339W        W90263  26.714  42.695  49.706
98340W        W90264  22.740  37.709  53.813
98341W        W90265  41.695  29.221  50.610
98342W        W90266  32.738  12.242  50.598
98343W        W90267  30.224  44.719  52.899
98344W        W90268  26.233  48.213  53.328
98345W        W90269  28.726  39.732  52.890
98346W        W90270   0.749  36.194  53.345
98347W        W90271  35.196  32.246  49.694
98348W        W90272   3.747  20.753  51.987
98349W        W90273   4.790  22.745  49.673
98350W        W90274  31.222  13.229  49.675
98351W        W90275  12.774   5.262  51.527
98352W        W90276   1.769  43.196  52.439
98353W        W90277  13.775  21.221  49.688
98354W        W90278  24.228  38.703  53.332
98355W        W90279  26.212  44.182  51.497
98356W        W90280  43.218  11.248  49.673
98357W        W90281   4.247   9.262  50.129
98358W        W90282  21.247   5.264  51.057
98359W        W90283  21.734  10.751  51.526
98360W        W90284  11.732  34.729  52.887
98361W        W90285   5.755  15.732  51.982
98362W        W90286  22.737  31.743  52.436
98363W        W90287  32.703  34.234  53.806
98364W        W90288  30.214  39.734  52.414
98365W        W90289  25.715  24.724  52.424
98366W        W90290  20.730  24.731  51.058
98367W        W90291  14.735  23.221  51.065
98368W        W90292  45.717  22.743  51.043
98369W        W90293   0.789   7.782  52.438
98370W        W90294  12.757  31.730  51.048
98371W        W90295  44.214  10.266  49.666
98372W        W90296  39.728  37.716  53.775
98373W        W90297  18.269  48.181  51.979
98374W        W90298  13.247  47.187  52.867
98375W        W90299   3.763  12.734  49.698
98376W        W90300   9.276  47.179  50.124
98377W        W90301  44.688  42.223  50.148
98378W        W90302  24.246  24.230  50.141
98379W        W90303   7.771  13.747  53.358
98380W        W90304  29.743  14.259  51.494
98381W        W90305   8.766  38.720  51.517
98382W        W90306  34.240  22.741  49.681
98383W        W90307  37.736  27.753  53.777
98384W        W90308  30.245  15.768  52.876
98385W        W90309  28.725  21.248  52.879
98386W        W90310   2.787  24.235  53.816
98387W        W90311  37.696   2.748  52.411
98388W        W90312  20.233  24.219  52.448
98389W        W90313   9.767  23.225  51.069
98390W        W90314  45.677  34.712  52.888
98391W        W90315  10.263  15.236  52.902
98392W        W90316   1.792   0.779  50.162
98393W        W90317  23.755  13.228  51.058
98394W        W90318   6.265  33.208  53.805
98395W        W90319   1.291  24.756  51.514
98396W        W90320  36.708  25.721  52.443
98397W        W90321  15.736  40.232  51.515
98398W        W90322  14.271   5.756  50.578
98399W        W90323  35.726  21.761  53.350
98400W        W90324  19.235  37.237  51.959
98401W        W90325  34.725   5.257  49.678
98402W        W90326  16.270  32.744  49.695
98403W        W90327  12.738  17.747  49.688
98404W        W90328   0.279  32.233  52.431
98405W        W90329  20.758  39.724  52.883
98406W        W90330  47.210  33.237  51.058
98407W        W90331  16.730   9.256  51.990
98408W        W90332  12.241  44.680  53.808
98409W        W90333  21.721  21.230  53.772
98410W        W90334  26.731  27.213  51.532
98411W        W90335  19.242  14.256  51.078
98412W        W90336  31.704  10.261  49.676
98413W        W90337   5.258  13.739  52.430
98414W        W90338   9.252  47.187  52.428
98415W        W90339  37.713  12.735  51.051
98416W        W90340  44.202  47.210  51.980
98417W        W90341  15.774  44.179  51.037
98418W        W90342  33.703  21.733  50.123
98419W        W90343  18.756  42.693  51.510
98420W        W90344   7.740  32.199  52.882
98421W        W90345  37.717  33.742  51.073
98422W        W90346   4.770  30.721  51.043
98423W        W90347  34.209  24.758  51.034
98424W        W90348  18.738   7.272  51.532
98425W        W90349  27.711  44.199  52.408
98426W        W90350  29.214   3.282  50.622
98427W        W90351  30.719  37.200  51.505
98428W        W90352   0.291  47.189  50.130
98429W        W90353  34.240  40.697  51.534
98430W        W90354  26.255   3.777  53.810
98431W        W90355  28.212  44.206  49.704
98432W        W90356  36.228  15.738  49.697
98433W        W90357  46.211  21.745  49.676
98434W        W90358  23.258  41.208  52.414
98435W        W90359  16.769  20.263  49.697
98436W        W90360   8.276  12.274  49.689
98437W        W90361  41.696  10.749  50.123
98438W        W90362   5.255   4.269  51.980
98439W        W90363  11.767   2.774  50.130
98440W        W90364   6.250   7.256  50.160
98441W        W90365   4.762  14.731  49.691
98442W        W90366  46.196  42.725  51.958
98443W        W90367   4.261  11.765  50.593
98444W        W90368  21.740  37.216  51.507
98445W        W90369  30.214  33.704  51.503
98446W        W90370  47.180  28.739  52.433
98447W        W90371  29.701  20.247  51.061
98448W        W90372  19.218  20.261  50.607
98449W        W90373  21.722   6.274  51.972
98450W        W90374  13.251  11.759  53.352
98451W        W90375  37.234  20.247  51.496
98452W        W90376  35.200  44.704  51.043
98453W        W90377  11.777  32.199  52.442
98454W        W90378   3.270   0.783  53.354
98455W        W90379  28.720   1.780  53.330
98456W        W90380   8.778  24.222  50.608
98457W        W90381  12.245   2.752  50.131
98458W        W90382   2.791  10.763  51.961
98459W        W90383  28.721  17.757  50.145
98460W        W90384  10.265  37.693  51.062
98461W        W90385   4.779  45.707  50.596
98462W        W90386  38.717   6.265  53.778
98463W        W90387   7.277  47.202  53.791
98464W        W90388  18.222  40.704  51.990
98465W        W90389  38.733  40.686  53.816
98466W        W90390   5.242  18.220  53.773
98467W        W90391  27.226  24.746  50.161
98468W        W90392  10.266   6.252  52.887
98469W        W90393   8.262   3.262  53.800
98470W        W90394  20.746   9.770  51.495
98471W        W90395  30.735  44.201  50.581
98472W        W90396  38.223  12.771  52.890
98473W        W90397  41.688  43.691  53.337
98474W        W90398  35.223  29.749  49.677
98475W        W90399  31.745  29.232  49.699
98476W        W90400  29.247   6.290  53.773
98477W        W90401  47.693  43.704  52.433
98478W        W90402  10.747  27.254  52.902
98479W        W90403  22.249  40.232  51.967
98480W        W90404  24.255   4.281  52.880
98481W        W90405   1.761   9.267  53.347
98482W        W90406  10.748  26.717  52.443
98483W        W90407  45.218  28.236  51.527
98484W        W90408   7.261   7.742  52.417
98485W        W90409  27.250  25.249  51.506
98486W        W90410  44.199  45.720  50.619
98487W        W90411  22.260  48.177  51.989
98488W        W90412   8.738  14.730  51.527
98489W        W90413   7.742  36.240  51.512
98490W        W90414   2.291  46.722  49.699
98491W        W90415  29.242  41.230  52.412
98492W        W90416  13.737  43.221  51.073
98493W        W90417   7.255  38.709  49.678
98494W        W90418   4.291  35.232  49.697
98495W        W90419  19.237  27.707  50.580
98496W        W90420   8.274  37.689  53.784
98497W        W90421   0.295  12.776  53.318
98498W        W90422  37.220   3.792  51.528
98499W        W90423  37.206  36.700  53.811
98500W        W90424  24.227  24.722  51.074
98501W        W90425   5.777   4.265  49.667
98502W        W90426   9.273  38.213  51.513
98503W        W90427  13.244  48.178  53.326
98504W        W90428  34.209  27.725  53.332
98505W        W90429  25.253  36.198  51.517
98506W        W90430  35.201   9.242  50.127
98507W        W90431  41.683  43.228  50.609
98508W        W90432  11.757  35.712  50.615
98509W        W90433  32.230  19.751  52.408
98510W        W90434  29.234   2.256  49.664
98511W        W90435  26.711  11.248  51.056
98512W        W90436  20.756  43.182  53.792
98513W        W90437  35.706  23.751  50.615
98514W        W90438   0.287   1.776  50.136
98515W        W90439  13.243  41.699  49.688
98516W        W90440  25.745  16.768  49.671
98517W        W90441  46.185  40.732  51.058
98518W        W90442  14.732  36.229  52.439
98519W        W90443  37.233  44.716  53.344
98520W        W90444   6.269  37.691  50.147
98521W        W90445  11.275  11.265  51.986
98522W        W90446  17.260  44.187  51.499
98523W        W90447   7.782  31.704  51.957
98524W        W90448  25.226  19.229  49.679
98525W        W90449  30.208   8.780  50.150
98526W        W90450   9.285  44.693  52.421
98527W        W90451  46.706  39.185  51.966
98528W        W90452  26.724  46.721  49.684
98529W        W90453  26.708  47.696  51.076
98530W        W90454  24.752  31.707  53.776
98531W        W90455  18.759  44.179  50.604
98532W        W90456  38.226  46.678  51.953
98533W        W90457  34.715  35.202  50.147
98534W        W90458  46.199   1.297  51.504
98535W        W90459   3.280  43.702  49.682
98536W        W90460  29.236  12.775  53.776
98537W        W90461   9.243  46.674  53.350
98538W        W90462   3.270  39.234  53.353
98539W        W90463  36.714   3.783  50.580
98540W        W90464  26.754  33.734  51.960
98541W        W90465  10.282   5.255  51.066
98542W        W90466  28.222   7.780  51.970
98543W        W90467   5.787  16.242  51.068
98544W        W90468  35.722  36.221  53.341
98545W        W90469  21.745   6.246  50.147
98546W        W90470  22.727  40.226  52.430
98547W        W90471   5.254  29.737  51.959
98548W        W90472  24.241  29.707  52.407
98549W        W90473  30.734  17.226  50.618
98550W        W90474  18.270  23.233  50.163
98551W        W90475  45.692  45.199  50.131
98552W        W90476  38.692  23.261  52.882
98553W        W90477   4.775  14.270  49.669
98554W        W90478  33.709  29.748  51.514
98555W        W90479   5.750  34.732  51.497
98556W        W90480   7.286  40.230  53.326
98557W        W90481  33.207  34.709  53.350
98558W        W90482  19.261  19.720  52.861
98559W        W90483   7.783  33.244  51.059
98560W        W90484  20.257  37.701  51.991
98561W        W90485  43.217  25.708  49.690
98562W        W90486  16.729  32.230  53.811
98563W        W90487   5.743  25.714  52.411
98564W        W90488  32.710  46.178  52.442
98565W        W90489  20.752  11.255  52.877
98566W        W90490   3.793  39.727  53.815
98567W        W90491  12.767  11.279  50.147
98568W        W90492  26.722   4.751  51.981
98569W        W90493  39.710  19.233  53.325
98570W        W90494  24.715  16.751  51.496
98571W        W90495  22.221  32.204  53.816
98572W        W90496   3.287  10.246  51.954
98573W        W90497  16.730  44.212  51.495
98574W        W90498  29.716  47.696  51.048
98575W        W90499  34.210  48.175  51.062
98576W        W90500  40.693  34.242  51.075
98577W        W90501  35.229  42.691  51.987
98578W        W90502  21.235  36.727  51.522
98579W        W90503  46.689  28.223  53.345
98580W        W90504  41.723  18.221  53.815
98581W        W90505  41.690  43.721  51.503
98582W        W90506  23.744  31.229  53.782
98583W        W90507   3.779  40.696  53.360
98584W        W90508   1.752   3.752  51.534
98585W        W90509  45.678  18.252  51.056
98586W        W90510  46.198   9.280  50.612
98587W        W90511  32.738  30.700  53.775
98588W        W90512  17.242  15.750  51.514
98589W        W90513  23.259   4.284  50.595
98590W        W90514  29.701  32.731  49.697
98591W        W90515  44.182  36.208  49.681
98592W        W90516  24.721   9.240  52.867
98593W        W90517   2.761  10.753  49.678
98594W        W90518  42.202  24.231  49.676
98595W        W90519  44.690  47.202  51.067
98596W        W90520  28.747  11.735  51.507
98597W        W90521  18.245  21.251  52.863
98598W        W90522  28.204  39.696  52.443
98599W        W90523   0.253  46.687  50.132
98600W        W90524  36.699  34.716  50.612
98601W        W90525  38.707  42.189  52.443
98602W        W90526  32.223  11.247  50.584
98603W        W90527  34.738  11.246  53.804
98604W        W90528  41.187   8.759  53.328
98605W        W90529  30.200  38.710  51.534
98606W        W90530   4.751  29.224  53.774
98607W        W90531  22.740  27.243  51.963
98608W        W90532  41.687  21.232  50.135
98609W        W90533  20.236  33.735  49.706
98610W        W90534  26.220  25.721  53.341
98611W        W90535  46.184  47.187  50.121
98612W        W90536  41.688  44.221  50.159
98613W        W90537   6.279  14.243  53.338
98614W        W90538  42.729  45.706  52.869
98615W        W90539  18.269  13.733  53.813
98616W        W90540  37.725   1.761  52.447
98617W        W90541  45.215  26.722  52.866
98618W        W90542  36.227  44.726  53.331
98619W        W90543  34.204  16.726  53.806
98620W        W90544  40.188  36.209  53.813
98621W        W90545  13.753  27.732  53.329
98622W        W90546   1.269  16.751  52.441
98623W        W90547  48.207   3.294  52.892
98624W        W90548  12.234  10.273  51.059
98625W        W90549  34.724  23.737  53.802
98626W        W90550  38.204  43.717  52.893
98627W        W90551  47.712  30.206  52.869
98628W        W90552   7.777  22.221  50.143
98629W        W90553   5.767  46.721  51.050
98630W        W90554  35.195  33.241  51.952
98631W        W90555  44.224   2.769  51.967
98632W        W90556  46.219  16.736  53.317
98633W        W90557  30.706  18.723  50.156
98634W        W90558  31.720  19.726  51.974
98635W        W90559  27.743   8.785  51.959
98636W        W90560  27.729   8.768  51.061
98637W        W90561  29.216  43.198  49.695
98638W        W90562  42.217  46.217  50.150
98639W        W90563   0.795  21.764  52.419
98640W        W90564  34.699  39.692  51.982
98641W        W90565  36.204  44.220  51.972
98642W        W90566  10.262  14.767  50.619
98643W        W90567  16.736  15.240  51.047
98644W        W90568  15.745  11.257  53.341
98645W        W90569  21.740  27.748  53.794
98646W        W90570  22.263  25.236  49.707
98647W        W90571  12.759   0.755  52.437
98648W        W90572  33.214  21.231  52.410
98649W        W90573  37.227  36.232  53.796
98650W        W90574  33.238  27.253  50.619
98651W        W90575  30.202  12.759  50.587
98652W        W90576  26.249  10.756  51.531
98653W        W90577  29.206  28.719  52.412
98654W        W90578   3.776   0.782  52.864
98655W        W90579  44.704   5.769  51.527
98656W        W90580  30.214   8.274  49.689
98657W        W90581  10.743  26.721  51.043
98658W        W90582  44.212  40.195  50.165
98659W        W90583   9.770  39.234  52.421
98660W        W90584  21.722  32.718  53.781
98661W        W90585  42.223  38.227  51.961
98662W        W90586  30.720  39.730  50.597
98663W        W90587  34.241  14.751  49.668
98664W        W90588  42.723  32.713  51.049
98665W        W90589  21.255  18.724  52.896
98666W        W90590  21.745  13.758  51.055
98667W        W90591   5.257  45.202  51.036
98668W        W90592  41.190  44.696  49.672
98669W        W90593  36.209  47.181  53.794
98670W        W90594  11.764   0.262  53.775
98671W        W90595  38.213  22.231  49.687
98672W        W90596  43.187   7.263  51.506
98673W        W90597  31.732   1.287  52.902
98674W        W90598  29.737  34.205  49.696
98675W        W90599  47.709  30.713  52.436
98676W        W90600  46.694  42.716  52.876
98677W        W90601  18.754   9.754  51.071
98678W        W90602  44.209  47.217  51.076
98679W        W90603  18.259   3.744  50.599
98680W        W90604  37.718  13.771  51.508
98681W        W90605  43.700  36.203  51.502
98682W        W90606  14.228   1.257  51.975
98683W        W90607  28.251  34.712  51.527
98684W        W90608  11.262  44.215  52.428
98685W        W90609  13.768  37.222  50.132
98686W        W90610  48.177  20.744  53.818
98687W        W90611  16.270  16.725  53.779
98688W        W90612  37.718  32.238  51.499
98689W        W90613  29.230   8.252  51.502
98690W        W90614  48.191  31.716  51.051
98691W        W90615  48.190  37.735  51.511
98692W        W90616   1.277   0.275  52.887
98693W        W90617  45.204  38.222  49.665
98694W        W90618   8.263   8.254  52.890
98695W        W90619  37.702  45.678  50.161
98696W        W90620  28.746  42.189  50.581
98697W        W90621  28.252  41.191  51.982
98698W        W90622  12.748   2.751  50.153
98699W        W90623  29.209  16.271  53.789
98700W        W90624  32.741  22.721  51.976
98701W        W90625  35.692  20.739  51.056
98702W        W90626  10.237  22.240  49.707
98703W        W90627  32.720  14.247  49.674
98704W        W90628  16.236  21.241  51.050
98705W        W90629  47.672  15.734  51.056
98706W        W90630  14.748  40.704  50.600
98707W        W90631  47.220  23.723  49.701
98708W        W90632  42.212  26.743  53.789
98709W        W90633   8.773  25.720  52.443
98710W        W90634   8.782   0.262  51.946
98711W        W90635  27.716   8.271  52.413
98712W        W90636   8.764  21.236  51.052
98713W        W90637  10.777  41.197  51.497
98714W        W90638  36.229   0.756  50.606
98715W        W90639   9.749  18.724  50.581
98716W        W90640  24.739  12.251  51.987
98717W        W90641  18.235  44.180  52.422
98718W        W90642  29.245  11.758  51.991
98719W        W90643  27.207  13.742  51.491
98720W        W90644  41.685   1.796  50.606
98721W        W90645  37.728  24.231  50.165
98722W        W90646   4.748   0.791  51.060
98723W        W90647  21.732   8.738  50.590
98724W        W90648   5.762  10.264  53.805
98725W        W90649  35.728  32.237  53.343
98726W        W90650  25.711  17.240  51.057
98727W        W90651  35.709  11.247  52.901
98728W        W90652  26.735  18.740  51.496
98729W        W90653  11.280   6.740  50.161
98730W        W90654  19.223  18.258  50.591
98731W        W90655   4.785  22.227  49.709
98732W        W90656  20.736   1.760  52.861
98733W        W90657  37.195   6.765  52.875
98734W        W90658   2.269  29.742  50.162
98735W        W90659  12.241  19.738  52.419
98736W        W90660   7.744  16.743  50.162
98737W        W90661   6.758  14.765  51.949
98738W        W90662   9.770  36.223  53.330
98739W        W90663  31.215   3.268  52.447
98740W        W90664  10.236  31.735  51.079
98741W        W90665   5.249  18.265  50.166
98742W        W90666   4.245  24.224  52.412
98743W        W90667  30.699  20.225  51.504
98744W        W90668  26.211  21.719  52.881
98745W        W90669  18.246  40.214  51.966
98746W        W90670  25.246  25.754  49.690
98747W        W90671  13.259  21.742  51.528
98748W        W90672  20.726   0.298  50.579
98749W        W90673  15.246  18.737  49.664
98750W        W90674  31.739  14.250  51.071
98751W        W90675  15.245  45.184  51.975
98752W        W90676  32.706  11.767  50.133
98753W        W90677  11.740  47.189  52.893
98754W        W90678   2.758  31.219  51.535
98755W        W90679  47.204  27.726  53.360
98756W        W90680  21.716  21.250  53.333
98757W        W90681   4.251  45.207  53.333
98758W        W90682   3.757   7.259  52.433
98759W        W90683  22.730   2.762  52.889
98760W        W90684   8.253   0.272  49.684
98761W        W90685  31.700  11.234  52.884
98762W        W90686  38.707  27.248  52.861
98763W        W90687  30.741  21.257  51.508
98764W        W90688  35.731  24.744  53.813
98765W        W90689   2.753  27.217  50.599
98766W        W90690  27.239   8.249  52.871
98767W        W90691  46.676   7.755  51.490
98768W        W90692  37.721  34.214  52.420
98769W        W90693   3.259  45.201  49.700
98770W        W90694  27.708  41.185  50.131
98771W        W90695  37.698  24.229  53.317
98772W        W90696   7.239  21.753  52.413
98773W        W90697  13.740  30.710  50.604
98774W        W90698  24.746   1.288  52.423
98775W        W90699  25.222  41.723  52.445
98776W        W90700  25.258  24.258  52.876
98777W        W90701   4.757  11.280  52.862
98778W        W90702  42.190  14.743  49.707
98779W        W90703  23.756  31.703  51.955
98780W        W90704  41.188  34.717  50.603
98781W        W90705  16.729  40.205  49.667
98782W        W90706  32.246  34.696  51.498
98783W        W90707   9.273  38.698  53.330
98784W        W90708  22.717  15.256  52.444
98785W        W90709  38.201  39.729  50.146
98786W        W90710  28.226  18.240  50.621
98787W        W90711  46.716   1.251  53.316
98788W        W90712  47.688  36.720  51.968
98789W        W90713  21.754  22.730  50.160
98790W        W90714  44.200   2.770  51.073
98791W        W90715  31.200  28.726  51.987
98792W        W90716  21.753  29.751  51.060
98793W        W90717  14.228  29.726  50.620
98794W        W90718  36.203  12.244  50.138
98795W        W90719  19.246  25.729  53.336
98796W        W90720  31.219  23.258  52.888
98797W        W90721  16.724   9.759  53.322
98798W        W90722   1.775  37.733  51.063
98799W        W90723  16.233  36.205  51.491
98800W        W90724   0.793  32.709  53.359
98801W        W90725  35.225   6.760  49.692
98802W        W90726  47.199   9.283  50.125
98803W        W90727  18.235  44.713  53.779
98804W        W90728   7.281  21.729  53.360
98805W        W90729  23.753  41.183  51.967
98806W        W90730  26.211   5.767  51.498
98807W        W90731   0.276  14.773  51.953
98808W        W90732  46.690  26.712  53.796
98809W        W90733  25.725  26.256  53.359
98810W        W90734  20.242  38.224  52.879
98811W        W90735  23.260  10.235  51.970
98812W        W90736  35.706  15.742  53.794
98813W        W90737   0.784  37.692  50.612
98814W        W90738  18.259   1.792  51.949
98815W        W90739  44.708  43.188  52.863
98816W        W90740  38.711  18.736  50.596
98817W        W90741  42.189  37.210  51.977
98818W        W90742  16.736  32.231  51.040
98819W        W90743  21.736  13.771  52.870
98820W        W90744  45.687   3.259  51.037
98821W        W90745  41.715  42.229  53.357
98822W        W90746  44.223  32.243  52.407
98823W        W90747  22.240  20.252  53.347
98824W        W90748  27.705  40.710  50.152
98825W        W90749  42.200  24.751  51.505
98826W        W90750  37.722   1.277  52.867
98827W        W90751   7.779  35.700  51.518
98828W        W90752  12.270   1.756  52.901
98829W        W90753  38.736  15.253  51.532
98830W        W90754  45.691  39.714  53.787
98831W        W90755  43.701  15.263  53.360
98832W        W90756  24.735  12.779  51.520
98833W        W90757  40.721   1.795  52.876
98834W        W90758  12.232  34.712  51.960
98835W        W90759  33.218  41.222  50.600
98836W        W90760  25.236  29.229  52.864
98837W        W90761  20.764   0.257  51.038
98838W        W90762   3.251  35.214  53.344
98839W        W90763  38.734  13.738  52.872
98840W        W90764   6.272  46.715  50.128
98841W        W90765  41.182  11.739  53.773
98842W        W90766  38.220  30.207  49.678
98843W        W90767  37.232  18.238  51.977
98844W        W90768   5.782  24.754  53.326
98845W        W90769  31.709  39.720  53.782
98846W        W90770  33.203   1.784  51.059
98847W        W90771  10.242  19.256  51.980
98848W        W90772  22.260   1.295  51.045
98849W        W90773  34.716  42.181  53.339
98850W        W90774  43.210  42.714  51.520
98851W        W90775  32.232  19.760  51.078
98852W        W90776  32.227  29.239  51.951
98853W        W90777  11.735  16.256  50.597
98854W        W90778   0.276   3.256  51.516
98855W        W90779  45.676  41.725  49.673
98856W        W90780   4.784  26.726  52.411
98857W        W90781  15.228  23.727  51.948
98858W        W90782  42.697  13.759  51.525
98859W        W90783  22.737   9.245  52.430
98860W        W90784   0.294  39.188  49.687
98861W        W90785  25.733   0.264  50.150
98862W        W90786  30.217   5.782  51.056
98863W        W90787  31.237  43.701  51.513
98864W        W90788  30.725  46.181  51.504
98865W        W90789   8.779  24.242  53.332
98866W        W90790  14.229  39.721  52.404
98867W        W90791  20.235   1.762  50.582
98868W        W90792  26.717  23.251  49.675
98869W        W90793   7.745  44.707  51.049
98870W        W90794   1.285  16.243  53.772
98871W        W90795   1.755  46.693  53.799
98872W        W90796  39.708  19.239  52.405
98873W        W90797  48.182  26.728  51.971
98874W        W90798  32.207  17.730  49.685
98875W        W90799  10.261  45.180  51.988
98876W        W90800  14.754   4.768  50.139
98877W        W90801  10.235  39.719  52.437
98878W        W90802  41.221  22.756  53.331
98879W        W90803   0.295  41.693  50.159
98880W        W90804  17.223  13.737  51.513
98881W        W90805  40.193  10.251  53.356
98882W        W90806  16.758  16.266  51.518
98883W        W90807  22.214  17.241  53.332
98884W        W90808  22.746  40.709  50.589
98885W        W90809  44.217  39.706  52.883
98886W        W90810  40.227   2.291  53.325
98887W        W90811  18.263  42.226  49.669
98888W        W90812  30.731  31.237  50.163
98889W        W90813  19.228  40.688  53.361
98890W        W90814  32.213   1.292  51.525
98891W        W90815  47.681   1.277  53.777
98892W        W90816  19.229   3.775  53.797
98893W        W90817  34.714  36.209  50.163
98894W        W90818  31.701  14.244  49.664
98895W        W90819  12.238  35.219  50.585
98896W        W90820  17.749  22.757  51.513
98897W        W90821  15.757   9.280  52.892
98898W        W90822  47.695  42.228  51.962
98899W        W90823  46.718  28.708  52.866
98900W        W90824   4.245  23.743  51.535
98901W        W90825  19.736  27.747  53.810
98902W        W90826  24.243  16.739  50.601
98903W        W90827  37.689   9.775  51.063
98904W        W90828  44.181  34.238  50.132
98905W        W90829  26.711   0.263  51.959
98906W        W90830  17.733  39.229  50.164
98907W        W90831  11.250  41.701  52.406
98908W        W90832  47.172  28.703  51.507
98909W        W90833   8.771  29.715  53.337
98910W        W90834  34.727  35.202  53.339
98911W        W90835  11.753   5.264  50.139
98912W        W90836  19.246  27.740  53.789
98913W        W90837  39.692  38.217  51.976
98914W        W90838  39.233  10.734  51.978
98915W        W90839   5.754  12.271  53.358
98916W        W90840   0.262  31.203  50.608
98917W        W90841  40.718  43.716  52.881
98918W        W90842  18.729  46.200  53.323
98919W        W90843   2.254  45.718  50.147
98920W        W90844  19.760  24.740  51.065
98921W        W90845  35.216   8.765  52.442
98922W        W90846  17.245  26.744  52.890
98923W        W90847   6.249  24.740  53.782
98924W        W90848   9.767  11.765  51.532
98925W        W90849  28.744  25.722  53.806
98926W        W90850  12.744   9.241  51.495
98927W        W90851  18.242  20.762  50.141
98928W        W90852  41.710   0.280  52.444
98929W        W90853   1.275   6.277  51.492
98930W        W90854   4.761  37.237  52.427
98931W        W90855  35.229   8.774  49.699
98932W        W90856  16.242  27.748  52.863
98933W        W90857  41.705   2.782  51.950
98934W        W90858  48.200  36.239  51.076
98935W        W90859  16.271  44.717  51.949
98936W        W90860  31.722  29.712  51.503
98937W        W90861  43.719  25.212  49.675
98938W        W90862  21.220  37.689  51.972
98939W        W90863  14.248  41.200  51.978
98940W        W90864  22.762  14.776  52.871
98941W        W90865  16.259   6.746  51.063
98942W        W90866  45.706  29.235  50.163
98943W        W90867  21.264   3.761  51.969
98944W        W90868   2.757   4.274  50.150
98945W        W90869  15.275  13.232  52.885
98946W        W90870   6.764   0.797  52.896
98947W        W90871  35.714  23.729  52.883
98948W        W90872  23.221  38.686  51.990
98949W        W90873  20.255  47.694  50.578
98950W        W90874  10.276  46.683  50.592
98951W        W90875  32.222  12.759  50.165
98952W        W90876  41.197   3.290  53.776
98953W        W90877  43.180   1.761  50.129
98954W        W90878   2.783   3.251  50.584
98955W        W90879   3.286  35.194  53.792
98956W        W90880  41.205  28.241  50.148
98957W        W90881  12.232  11.245  53.323
98958W        W90882  21.237   9.242  53.343
98959W        W90883   6.760  28.220  52.878
98960W        W90884  21.250  12.247  51.953
98961W        W90885   4.273  39.211  52.425
98962W        W90886  23.248  24.212  51.518
98963W        W90887  43.218  34.717  51.498
98964W        W90888  41.214   4.743  52.430
98965W        W90889   4.279  27.749  51.972
98966W        W90890  34.207  11.764  53.798
98967W        W90891  37.692  26.725  50.135
98968W        W90892  12.249   0.292  51.516
98969W        W90893  16.737  32.220  50.621
98970W        W90894  19.231   9.750  51.044
98971W        W90895  25.727  23.713  52.883
98972W        W90896  29.725  47.687  51.530
98973W        W90897   2.782   2.281  53.351
98974W        W90898  20.220  17.233  53.779
98975W        W90899  35.240  31.714  53.335
98976W        W90900   7.745  26.744  51.065
98977W        W90901  37.202  29.213  51.968
98978W        W90902  20.744   7.253  52.413
98979W        W90903  16.253  24.747  51.047
98980W        W90904  26.719  19.225  52.424
98981W        W90905  32.743   0.798  52.407
98982W        W90906  14.771  17.759  51.956
98983W        W90907  45.225  18.744  51.950
98984W        W90908  48.209  23.230  52.432
98985W        W90909  16.252  21.226  51.507
98986W        W90910  29.745   1.781  51.077
98987W        W90911  43.714  42.718  51.532
98988W        W90912  17.731  43.692  53.345
98989W        W90913   7.780  38.705  53.360
98990W        W90914  14.733  37.692  50.606
98991W        W90915   5.750   7.244  50.602
98992W        W90916  25.744  19.722  53.793
98993W        W90917  20.727  19.242  52.897
98994W        W90918  32.244  34.235  51.977
98995W        W90919  18.738  33.736  53.783
98996W        W90920  39.691  27.752  51.957
98997W        W90921  20.222  46.223  53.776
98998W        W90922   9.738  28.211  51.066
98999W        W90923  10.734  21.738  52.894
99000W        W90924   4.276  14.275  51.951
99001W        W90925  41.226  35.709  53.329
99002W        W90926  34.699  36.223  50.590
99003W        W90927  28.236  28.242  50.148
99004W        W90928   7.755  31.240  51.522
99005W        W90929   1.250   7.283  49.707
99006W        W90930  28.721  46.722  52.882
99007W        W90931  36.194  21.721  50.124
99008W        W90932   7.747  45.197  52.432
99009W        W90933  43.223  12.753  50.590
99010W        W90934   4.758  41.215  51.971
99011W        W90935  32.232  40.694  51.981
99012W        W90936  20.719  14.255  53.320
99013W        W90937  47.713  42.207  49.695
99014W        W90938  13.275  16.732  53.788
99015W        W90939  47.178  37.217  51.057
99016W        W90940  14.276  18.224  52.880
99017W        W90941  15.740   2.792  51.077
99018W        W90942  34.726  45.183  53.319
99019W        W90943   6.257   6.786  51.046
99020W        W90944  17.743  38.731  50.597
99021W        W90945  32.214  39.215  51.530
99022W        W90946   7.275  48.208  51.077
99023W        W90947  42.701  28.219  53.815
99024W        W90948   3.261  25.246  50.616
99025W        W90949   6.783  42.698  50.138
99026W        W90950   0.274  22.731  51.977
99027W        W90951  26.228  25.724  50.138
99028W        W90952  18.262   8.761  50.158
99029W        W90953  17.251  42.715  52.416
99030W        W90954  29.229   5.786  51.989
99031W        W90955  23.713  28.245  50.159
99032W        W90956  17.752  40.706  53.814
99033W        W90957  13.747   9.266  53.811
99034W        W90958  26.714  20.229  51.051
99035W        W90959  44.700  39.709  53.807
99036W        W90960  37.205  26.253  50.142
99037W        W90961  29.703  26.250  52.415
99038W        W90962  31.707  10.745  53.356
99039W        W90963   0.299  18.245  53.330
99040W        W90964  38.217  35.736  53.340
99041W        W90965  46.205   1.250  50.606
99042W        W90966   4.760  27.244  52.866
99043W        W90967   6.270  31.723  49.690
99044W        W90968   9.737  29.748  53.353
99045W        W90969  28.718  10.281  51.950
99046W        W90970  20.762   2.257  51.530
99047W        W90971  26.239  24.750  51.510
99048W        W90972   0.797  16.239  52.860
99049W        W90973  45.698  45.214  51.495
99050W        W90974  10.241  18.738  53.341
99051W        W90975  11.232  38.230  50.604
99052W        W90976   1.757  46.699  51.501
99053W        W90977   6.276  45.697  51.949
99054W        W90978  44.182  43.190  53.782
99055W        W90979  35.235  24.737  51.068
99056W        W90980   3.764   8.752  50.162
99057W        W90981  47.695  19.254  51.510
99058W        W90982  42.724  36.218  52.423
99059W        W90983  22.218  41.219  50.155
99060W        W90984   6.788  35.731  50.591
99061W        W90985  44.704   0.788  51.990
99062W        W90986  25.232  39.692  51.976
99063W        W90987  24.257  38.719  52.892
99064W        W90988  28.729  20.250  50.156
99065W        W90989  17.264  30.737  53.321
99066W        W90990  12.258  35.203  53.816
99067W        W90991  47.202  11.768  51.984
99068W        W90992  12.246  41.725  51.046
99069W        W90993  27.746  14.738  51.078
99070W        W90994  41.704  14.728  52.860
99071W        W90995  38.202  38.735  53.328
99072W        W90996  35.194  25.236  50.584
99073W        W90997   4.272  32.741  51.955
99074W        W90998  17.736   4.248  51.535
99075W        W90999   1.755   5.754  50.600
99076W        W91000  41.702  23.728  51.046
99077W        W91001  11.739  20.243  50.149
99078W        W91002  47.210   5.764  49.691
99079W        W91003  38.188  48.182  51.976
99080W        W91004  41.223  40.200  51.972
99081W        W91005  26.723  35.206  51.051
99082W        W91006  39.194  29.709  53.799
99083W        W91007   0.277  37.212  53.795
99084W        W91008  43.692  17.259  50.128
99085W        W91009  30.228  15.264  49.689
99086W        W91010  46.687  47.675  51.060
99087W        W91011  32.743  39.705  49.689
99088W        W91012  33.734  20.745  50.621
99089W        W91013  23.245  23.219  51.046
99090W        W91014  34.713  10.271  50.579
99091W        W91015  40.219  18.237  53.316
99092W        W91016  42.716  31.738  51.989
99093W        W91017  37.202  40.226  51.971
99094W        W91018  47.704   4.791  50.135
99095W        W91019   2.292  47.181  52.410
99096W        W91020  12.234   8.279  53.316
99097W        W91021  22.224  30.218  51.057
99098W        W91022  33.718  42.682  52.417
99099W        W91023   0.797   8.268  52.437
99100W        W91024  28.228  39.208  52.446
99101W        W91025  37.200   8.770  49.693
99102W        W91026  46.721   2.788  51.955
99103W        W91027  24.725  43.197  49.706
99104W        W91028  46.202   5.252  51.955
99105W        W91029   6.242  27.221  53.320
99106W        W91030   6.270  32.212  50.593
99107W        W91031  42.707  20.231  51.523
99108W        W91032  20.722  30.743  49.703
99109W        W91033  12.260   6.289  52.863
99110W        W91034  26.755   1.764  52.889
99111W        W91035  16.267  25.737  50.594
99112W        W91036  26.209  18.229  51.076
99113W        W91037  31.702  36.733  51.040
99114W        W91038   3.258   1.295  51.973
99115W        W91039  19.231   8.262  51.951
99116W        W91040  43.188  15.735  51.526
99117W        W91041   4.763   6.245  52.433
99118W        W91042  41.193  26.226  53.802
99119W        W91043  27.236  30.720  49.673
99120W        W91044  27.227  21.729  51.986
99121W        W91045  21.717  40.230  51.949
99122W        W91046  35.727  45.222  53.802
99123W        W91047   1.253  16.273  51.529
99124W        W91048  41.690  45.703  51.500
99125W        W91049  37.704   6.774  52.897
99126W        W91050  28.740  18.226  50.161
99127W        W91051  45.703   2.792  50.589
99128W        W91052  24.752  19.734  53.780
99129W        W91053  32.712  21.733  51.528
99130W        W91054  10.246  35.230  50.578
99131W        W91055  47.680   1.789  51.535
99132W        W91056   9.253  10.769  52.417
99133W        W91057   0.256  22.251  51.535
99134W        W91058  32.732  12.772  50.590
99135W        W91059  30.246  36.213  53.333
99136W        W91060  40.733   0.772  52.877
99137W        W91061  20.744  25.219  53.345
99138W        W91062  20.228  33.730  51.520
99139W        W91063  17.255   1.791  51.046
99140W        W91064  26.725   0.769  53.773
99141W        W91065  19.264   5.776  52.414
99142W        W91066  25.219  14.237  51.985
99143W        W91067  22.735  30.726  51.044
99144W        W91068  39.733  10.272  51.968
99145W        W91069  32.223   3.260  53.817
99146W        W91070  24.747  14.235  49.702
99147W        W91071   7.772  43.211  53.808
99148W        W91072  37.199  33.214  49.677
99149W        W91073  46.712  22.234  53.794
99150W        W91074  42.718  11.267  52.444
99151W        W91075  31.708   9.258  49.690
99152W        W91076  20.241  21.749  52.412
99153W        W91077  14.243  33.244  51.038
99154W        W91078   5.286   6.770  50.597
99155W        W91079  11.739  20.735  51.057
99156W        W91080  33.708  26.239  50.150
99157W        W91081  13.740  25.218  50.164
99158W        W91082  18.261  38.713  51.532
99159W        W91083  44.719  10.277  53.327
99160W        W91084  38.208  31.204  51.505
99161W        W91085  19.248  27.209  53.353
99162W        W91086  21.232  20.217  53.808
99163W        W91087  14.248  21.752  51.967
99164W        W91088  46.693  31.712  50.598
99165W        W91089   9.261  18.231  53.780
99166W        W91090  25.733   7.259  50.616
99167W        W91091  15.759  44.701  50.614
99168W        W91092  33.245  14.772  50.585
99169W        W91093  26.713  16.733  53.320
99170W        W91094  15.251  16.772  49.678
99171W        W91095  23.234   5.291  52.880
99172W        W91096   9.759   8.753  50.613
99173W        W91097  44.205  41.212  50.144
99174W        W91098  41.199  48.211  52.420
99175W        W91099  35.739  37.700  51.497
99176W        W91100   5.785   8.754  53.342
99177W        W91101  45.199   2.757  51.044
99178W        W91102   3.294  38.190  51.516
99179W        W91103  44.184   0.299  51.515
99180W        W91104  34.709  10.777  50.157
99181W        W91105  40.191   8.246  51.957
99182W        W91106  22.226   3.780  52.883
99183W        W91107  32.707  14.261  51.511
99184W        W91108  37.726   4.763  50.152
99185W        W91109   5.278   9.738  49.688
99186W        W91110  38.691  37.695  51.967
99187W        W91111  28.227  32.216  51.512
99188W        W91112   2.267  24.756  51.949
99189W        W91113  15.767  47.693  52.892
99190W        W91114  34.717  12.276  52.867
99191W        W91115   4.291  45.723  51.533
99192W        W91116  36.699   5.759  50.586
99193W        W91117  24.227  34.737  53.354
99194W        W91118  39.199  19.759  52.438
99195W        W91119  35.225  44.710  50.601
99196W        W91120  37.724  11.248  51.982
99197W        W91121  28.722  35.230  50.585
99198W        W91122  44.682  32.222  50.617
99199W        W91123  38.208  19.751  51.983
99200W        W91124  21.737  40.725  52.903
99201W        W91125  32.203  37.704  51.047
99202W        W91126  31.227  41.703  51.955
99203W        W91127  36.723  29.726  51.037
99204W        W91128  40.225  31.704  53.339
99205W        W91129  43.214  39.214  52.897
99206W        W91130  14.238  42.697  51.977
99207W        W91131  28.752  17.260  49.694
99208W        W91132  14.235  30.210  51.498
99209W        W91133  15.261   6.781  53.326
99210W        W91134   6.246  27.738  51.957
99211W        W91135  47.191  14.231  53.340
99212W        W91136  45.206  47.711  52.433
99213W        W91137   3.754  13.729  50.134
99214W        W91138  17.244  27.753  50.132
99215W        W91139  35.215  47.702  49.676
99216W        W91140  44.226   1.749  50.615
99217W        W91141  41.201  16.755  49.694
99218W        W91142  31.709  19.224  53.777
99219W        W91143  38.695   3.288  52.874
99220W        W91144  27.241  38.700  50.592
99221W        W91145  17.754   3.788  53.323
99222W        W91146   0.783  36.713  52.891
99223W        W91147  44.678  20.240  51.531
99224W        W91148  23.232  11.744  52.431
99225W        W91149  35.238  20.249  51.041
99226W        W91150  29.226  13.752  51.515
99227W        W91151  27.221   5.281  51.066
99228W        W91152  43.187   2.268  52.898
99229W        W91153  32.739  24.718  52.861
99230W        W91154  12.764   6.763  51.533
99231W        W91155  16.762  11.279  52.448
99232W        W91156   6.275   0.299  50.151
99233W        W91157  32.199  17.748  53.337
99234W        W91158  10.742   9.240  53.797
99235W        W91159  33.240  36.228  51.514
99236W        W91160  39.723  17.241  53.796
99237W        W91161   7.779  23.743  50.150
99238W        W91162  23.221  32.224  51.060
99239W        W91163  35.739  37.700  52.865
99240W        W91164  28.752  44.181  53.336
99241W        W91165   9.739  30.238  52.871
99242W        W91166  11.735  36.231  49.700
99243W        W91167  37.726  36.199  51.511
99244W        W91168  18.259  14.262  53.352
99245W        W91169   4.761  23.757  51.504
99246W        W91170  13.247  45.705  52.410
99247W        W91171   7.249  25.220  49.709
99248W        W91172  42.702   9.775  53.325
99249W        W91173  30.713  18.760  52.423
99250W        W91174  11.241  15.260  52.889
99251W        W91175  21.248  26.230  53.327
99252W        W91176  20.759   9.239  50.597
99253W        W91177  12.749  36.725  50.122
99254W        W91178  20.238  47.197  50.619
99255W        W91179   9.747   3.768  50.133
99256W        W91180  15.763  34.721  53.357
99257W        W91181   6.245  13.268  50.609
99258W        W91182  31.731  27.738  50.162
99259W        W91183  21.241   5.262  50.134
99260W        W91184  46.191  21.231  52.435
99261W        W91185  20.746  25.256  50.578
99262W        W91186   1.262  14.234  52.434
99263W        W91187  32.730  18.233  51.500
99264W        W91188  25.743  15.253  50.592
99265W        W91189  34.216  32.233  53.323
99266W        W91190  39.207   6.773  49.678
99267W        W91191  10.737  17.257  51.505
99268W        W91192  22.250  44.189  53.333
99269W        W91193  13.751  22.715  53.804
99270W        W91194   4.248  10.268  49.676
99271W        W91195  29.212  29.226  50.619
99272W        W91196  25.727  37.691  51.512
99273W        W91197   7.740  41.688  52.439
99274W        W91198  36.207   9.251  50.616
99275W        W91199  18.768  20.733  53.316
99276W        W91200  13.767  38.691  53.807
99277W        W91201  46.211  15.766  51.516
99278W        W91202  46.189  47.673  51.965
99279W        W91203  34.718  16.273  50.578
99280W        W91204  26.232  36.706  50.166
99281W        W91205   2.786   0.793  51.516
99282W        W91206  23.239  35.711  53.804
99283W        W91207   8.779   4.254  52.877
99284W        W91208  24.735  34.703  50.595
99285W        W91209  13.761  20.231  51.530
99286W        W91210  41.205  41.184  50.140
99287W        W91211  20.743  25.223  53.779
99288W        W91212  26.709  21.242  49.697
99289W        W91213  20.757   8.782  50.589
99290W        W91214  40.194  42.223  49.679
99291W        W91215  19.719  45.677  51.965
99292W        W91216  22.761   8.246  53.775
99293W        W91217  24.211  28.224  53.804
99294W        W91218  32.219  34.713  53.325
99295W        W91219  17.239   8.755  53.331
99296W        W91220   0.758  27.211  51.502
99297W        W91221  43.678  16.742  51.986
99298W        W91222  22.756  23.736  52.901
99299W        W91223  24.721  17.738  49.674
99300W        W91224  11.234   6.750  52.865
99301W        W91225  25.737  28.224  52.441
99302W        W91226   7.272  17.747  50.134
99303W        W91227  45.219  43.182  53.347
99304W        W91228  21.222   0.296  50.132
99305W        W91229  26.724  40.716  51.959
99306W        W91230   5.783  41.208  50.123
99307W        W91231   0.294   2.791  50.606
99308W        W91232  41.690  10.235  51.493
99309W        W91233  20.721  30.727  51.967
99310W        W91234  24.723  22.728  50.603
99311W        W91235  20.250   9.259  51.055
99312W        W91236  16.251  10.254  50.616
99313W        W91237   8.276  10.240  49.687
99314W        W91238  36.735  41.203  52.404
99315W        W91239  10.270  23.236  50.609
99316W        W91240  14.738  26.220  51.066
99317W        W91241  22.240   4.254  49.694
99318W        W91242   1.265  15.230  52.863
99319W        W91243  12.735  29.239  51.048
99320W        W91244  43.196  30.216  50.607
99321W        W91245  19.729  20.734  52.904
99322W        W91246   2.777  12.773  51.516
99323W        W91247   3.747  15.255  50.607
99324W        W91248  31.218  46.180  50.140
99325W        W91249  12.240   2.774  51.974
99326W        W91250  23.233   0.778  51.951
99327W        W91251  18.260  29.228  52.442
99328W        W91252   3.787  21.253  50.164
99329W        W91253  25.248  22.736  52.901
99330W        W91254  11.260  35.193  53.320
99331W        W91255  28.234  11.271  53.349
99332W        W91256  44.705  36.219  51.533
99333W        W91257  43.195  45.194  50.602
99334W        W91258  28.205  26.753  50.623
99335W        W91259  39.201  31.229  51.059
99336W        W91260  25.752   9.258  50.160
99337W        W91261   5.261  27.239  52.874
99338W        W91262  13.270   4.747  52.404
99339W        W91263  17.721  18.236  53.773
99340W        W91264   1.289  33.196  53.333
99341W        W91265  20.765  38.701  50.130
99342W        W91266   6.273  23.727  51.987
99343W        W91267  17.234  42.721  50.166
99344W        W91268  33.209  42.716  53.786
99345W        W91269  27.218  17.244  52.403
99346W        W91270  44.709  13.774  52.884
99347W        W91271   2.781  39.223  52.864
99348W        W91272  18.231  26.728  50.579
99349W        W91273   8.769  26.754  49.665
99350W        W91274  12.244  21.246  51.055
99351W        W91275  10.273  22.229  50.618
99352W        W91276  31.725  43.217  53.796
99353W        W91277   3.775  17.728  51.035
99354W        W91278  11.773  26.230  52.903
99355W        W91279  27.250  33.706  53.351
99356W        W91280  10.240  16.266  52.406
99357W        W91281  44.204  35.703  49.708
99358W        W91282   1.294  12.768  51.509
99359W        W91283  23.733  27.718  50.131
99360W        W91284  43.679   7.279  52.886
99361W        W91285  38.220  34.722  50.130
99362W        W91286  16.746  32.235  50.162
99363W        W91287  12.273  32.742  50.153
99364W        W91288  31.709  12.258  49.685
99365W        W91289   3.782   4.783  51.974
99366W        W91290  13.748   1.764  51.968
99367W        W91291  15.763   1.762  52.406
99368W        W91292  39.702   7.267  52.431
99369W        W91293   6.248  31.715  51.067
99370W        W91294   3.780  30.227  51.520
99371W        W91295  26.716  45.176  51.956
99372W        W91296   1.261  35.215  53.775
99373W        W91297  22.719  39.204  51.043
99374W        W91298  47.210  46.686  49.692
99375W        W91299  11.261  22.239  53.330
99376W        W91300   4.285  34.700  52.861
99377W        W91301   9.247  35.223  52.410
99378W        W91302  40.186  48.184  50.137
99379W        W91303  13.746  31.722  51.524
99380W        W91304   6.277  16.259  49.704
99381W        W91305  40.216  20.258  53.339
99382W        W91306  35.234  10.267  53.804
99383W        W91307   1.274   4.769  51.532
99384W        W91308  45.724  18.229  51.495
99385W        W91309  17.226  43.212  53.787
99386W        W91310  12.763  21.256  51.511
99387W        W91311  36.697  24.243  50.134
99388W        W91312  46.689  44.692  52.897
99389W        W91313  23.737  10.780  51.967
99390W        W91314  12.733  44.180  53.800
99391W        W91315  14.750  37.218  51.991
99392W        W91316  29.210  12.241  50.159
99393W        W91317  43.189  11.732  53.336
99394W        W91318   2.265  15.270  51.524
99395W        W91319  19.748  18.249  53.802
99396W        W91320   7.747   0.777  53.793
99397W        W91321  22.758  11.232  53.321
99398W        W91322  15.241  46.690  52.420
99399W        W91323  40.727  40.189  53.806
99400W        W91324  23.250  45.211  49.671
99401W        W91325  47.701   9.744  50.128
99402W        W91326   9.241  21.740  49.677
99403W        W91327  37.204  39.704  50.614
99404W        W91328  48.194   3.264  52.429
99405W        W91329  16.741  32.722  51.991
99406W        W91330  25.732   2.251  51.073
99407W        W91331  40.718  31.737  50.579
99408W        W91332  29.746   3.765  52.874
99409W        W91333  40.220   2.257  53.786
99410W        W91334  27.740  26.238  53.336
99411W        W91335  18.246  20.748  52.416
99412W        W91336  35.738  39.692  52.892
99413W        W91337  26.713  44.189  53.346
99414W        W91338  42.199  47.710  53.805
99415W        W91339  11.259  26.737  50.151
99416W        W91340  20.256  29.246  51.951
99417W        W91341  25.243  11.737  53.317
99418W        W91342  34.203   1.298  50.581
99419W        W91343  28.204  13.277  51.953
99420W        W91344  40.718  36.222  50.618
99421W        W91345  31.716  41.702  51.958
99422W        W91346  48.178   2.785  52.873
99423W        W91347  46.698   5.253  51.974
99424W        W91348  31.214  44.179  52.411
99425W        W91349  30.228  10.778  51.048
99426W        W91350  22.263  23.733  50.618
99427W        W91351  12.737  35.713  52.867
99428W        W91352  27.228  26.709  52.873
99429W        W91353   7.748  38.230  53.354
99430W        W91354  42.212  35.711  51.988
99431W        W91355  33.705  31.738  51.978
99432W        W91356  14.767  34.742  51.498
99433W        W91357   9.281  33.743  53.778
99434W        W91358  18.236  34.704  53.777
99435W        W91359  22.750  26.731  49.695
99436W        W91360  13.258  14.754  53.340
99437W        W91361  12.755  41.188  49.679
99438W        W91362  16.265  15.731  52.867
99439W        W91363  25.726   8.769  53.349
99440W        W91364  24.214  41.691  51.955
99441W        W91365  24.758  14.755  52.404
99442W        W91366  18.225  18.759  53.803
99443W        W91367  15.231   8.272  51.525
99444W        W91368  19.231  18.725  52.428
99445W        W91369  17.253   2.792  52.407
99446W        W91370  45.689   1.273  51.510
99447W        W91371  43.201  11.735  53.810
99448W        W91372   3.259  32.708  52.867
99449W        W91373   1.749  35.692  53.787
99450W        W91374  19.248  36.729  52.428
99451W        W91375   9.745  23.720  51.073
99452W        W91376  35.199   4.789  51.951
99453W        W91377  20.762   2.262  51.964
99454W        W91378  19.263  32.716  51.071
99455W        W91379   5.286  31.733  53.808
99456W        W91380  12.237  14.270  53.317
99457W        W91381  29.240  25.228  52.430
99458W        W91382  12.772  24.731  51.052
99459W        W91383  15.761  39.721  52.873
99460W        W91384  37.235  11.769  50.136
99461W        W91385  34.198  19.253  53.317
99462W        W91386  24.757   8.759  52.443
99463W        W91387  21.721  37.734  53.800
99464W        W91388  15.274  15.251  51.947
99465W        W91389  34.704  13.261  49.675
99466W        W91390  32.204  18.758  53.347
99467W        W91391  13.262  25.231  53.347
99468W        W91392  20.747  35.734  53.796
99469W        W91393  45.200  10.734  50.591
99470W        W91394  32.213  44.680  52.888
99471W        W91395  26.753  39.208  51.973
99472W        W91396  46.207  30.742  51.964
99473W        W91397  10.265  23.738  50.604
99474W        W91398  43.218  33.703  53.327
99475W        W91399   1.254  37.194  50.619
99476W        W91400  21.238  38.707  52.903
99477W        W91401  12.269  12.253  51.964
99478W        W91402  41.713  10.253  53.791
99479W        W91403  10.256  32.742  52.877
99480W        W91404  39.709  32.217  53.812
99481W        W91405  35.216  15.241  49.685
99482W        W91406  20.729  18.261  52.865
99483W        W91407  34.715  42.209  52.409
99484W        W91408  32.241  40.193  53.328
99485W        W91409  45.186  12.241  53.316
99486W        W91410  11.279  40.700  52.873
99487W        W91411  37.696  22.742  53.321
99488W        W91412  36.235  17.725  52.431
99489W        W91413  40.209  28.704  52.412
99490W        W91414   1.769  12.773  52.884
99491W        W91415  11.748  20.264  50.593
99492W        W91416   8.776   9.252  52.433
99493W        W91417   7.246   2.747  52.411
99494W        W91418  40.203   7.281  50.137
99495W        W91419  27.724  32.224  52.876
99496W        W91420   6.754  21.240  53.781
99497W        W91421   3.751  45.677  52.889
99498W        W91422  20.231  26.723  50.593
99499W        W91423  22.743   9.283  52.879
99500W        W91424   6.245  41.193  52.438
99501W        W91425   3.287  16.240  52.895
99502W        W91426  17.251  30.700  50.591
99503W        W91427  32.197  39.719  52.423
99504W        W91428   5.744  28.247  52.877
99505W        W91429   7.265  44.190  50.593
99506W        W91430  18.731  12.769  51.511
99507W        W91431   3.754   6.788  51.035
99508W        W91432   1.270  11.744  51.039
99509W        W91433  22.757  19.238  51.523
99510W        W91434   0.264  15.261  50.130
99511W        W91435   2.283  32.216  52.404
99512W        W91436  11.770  13.275  50.142
99513W        W91437  17.755  32.212  53.806
99514W        W91438  19.752  39.196  50.123
99515W        W91439  45.685  30.744  53.807
99516W        W91440  28.230   1.785  53.785
99517W        W91441  12.266  24.740  52.904
99518W        W91442  29.720   2.259  53.342
99519W        W91443  13.728   4.252  51.986
99520W        W91444   9.736  34.209  52.874
99521W        W91445  28.213   4.758  50.588
99522W        W91446  19.739  16.231  50.585
99523W        W91447  12.757   5.777  50.138
99524W        W91448  38.213  29.234  49.678
99525W        W91449   0.774   5.282  51.074
99526W        W91450  28.212  21.746  53.787
99527W        W91451  44.694  29.236  51.517
99528W        W91452  44.720  15.256  53.805
99529W        W91453  20.225  18.765  52.406
99530W        W91454  30.207  31.741  51.532
99531W        W91455  15.748   1.293  51.534
99532W        W91456  34.738  32.239  50.126
99533W        W91457   1.251  43.226  52.861
99534W        W91458  46.204  38.193  51.989
99535W        W91459  37.714  33.716  53.817
99536W        W91460  47.712   4.291  52.441
99537W        W91461  11.778  21.260  50.141
99538W        W91462  28.222  13.235  49.700
99539W        W91463  34.233  16.243  52.439
99540W        W91464  29.212  47.203  52.862
99541W        W91465  23.730  29.714  52.431
99542W        W91466  11.775   8.259  50.149
99543W        W91467  11.774  36.191  50.140
99544W        W91468  30.713  35.202  50.159
99545W        W91469  31.239  30.712  51.531
99546W        W91470  19.744  13.252  51.972
99547W        W91471  38.207   3.273  50.140
99548W        W91472  11.765  12.263  53.774
99549W        W91473  43.185   1.251  53.361
99550W        W91474  32.217  43.226  53.804
99551W        W91475  36.720  32.733  53.781
99552W        W91476  39.220  17.236  50.161
99553W        W91477  19.266  17.733  50.148
99554W        W91478  48.214  47.691  53.333
99555W        W91479  39.206  22.737  51.525
99556W        W91480  30.245  18.239  51.055
99557W        W91481  32.237  15.738  49.669
99558W        W91482  20.260  32.200  51.065
99559W        W91483  46.687  39.727  50.595
99560W        W91484  22.754  47.198  49.694
99561W        W91485  25.736  37.194  51.960
99562W        W91486  12.778  19.267  53.344
99563W        W91487   2.269  28.738  52.424
99564W        W91488  15.239  33.744  52.444
99565W        W91489  41.722  38.215  51.045
99566W        W91490  46.673  15.258  50.595
99567W        W91491   5.756  16.258  51.965
99568W        W91492  37.716  35.721  51.951
99569W        W91493  42.684  18.250  50.606
99570W        W91494  40.724  33.737  49.669
99571W        W91495   7.255  41.213  51.955
99572W        W91496   5.763  40.690  52.407
99573W        W91497  42.713   5.771  50.622
99574W        W91498  28.711  23.756  51.068
99575W        W91499  43.190  42.194  53.785
99576W        W91500  24.724  33.710  52.884
99577W        W91501  45.686  45.719  50.125
99578W        W91502  40.688   3.748  52.440
99579W        W91503   5.782  27.749  53.324
99580W        W91504  16.251  12.752  49.673
99581W        W91505  48.203  28.231  53.809
99582W        W91506   9.265  46.181  50.130
99583W        W91507  30.737  45.682  53.815
99584W        W91508   1.295  13.769  51.491
99585W        W91509  38.709  31.740  51.065
99586W        W91510  15.263  27.235  52.425
99587W        W91511   6.282  25.239  53.360
99588W        W91512  35.700  37.693  49.667
99589W        W91513  22.239  31.202  49.677
99590W        W91514  28.235   6.285  53.799
99591W        W91515   2.254  42.188  50.591
99592W        W91516  39.232   6.757  53.349
99593W        W91517  21.729  31.238  51.985
99594W        W91518  17.254  12.259  50.123
99595W        W91519  26.724  31.722  49.681
99596W        W91520   6.262  47.706  51.496
99597W        W91521  25.251  44.205  50.154
99598W        W91522   1.248  38.730  50.615
99599W        W91523  13.761   3.780  51.072
99600W        W91524  13.255  26.241  52.439
99601W        W91525  40.197  28.746  51.525
99602W        W91526  43.711  46.718  53.336
99603W        W91527   3.793  31.232  53.809
99604W        W91528  37.238  28.212  49.685
99605W        W91529  18.767  30.207  53.782
99606W        W91530  27.730   3.264  53.331
99607W        W91531  47.672   2.753  50.123
99608W        W91532  25.710  29.231  50.619
99609W        W91533  21.733   8.261  53.785
99610W        W91534   0.274  33.220  49.696
99611W        W91535   0.758  38.728  53.803
99612W        W91536  36.703  33.698  50.151
99613W        W91537  43.693  36.729  49.668
99614W        W91538  19.728   5.775  50.600
99615W        W91539  36.703  35.730  53.344
99616W        W91540  41.710  23.253  49.694
99617W        W91541  24.744  31.205  50.599
99618W        W91542  22.226  22.720  51.977
99619W        W91543  13.250   9.273  49.683
99620W        W91544  12.735  38.232  53.331
99621W        W91545  46.206  43.226  50.595
99622W        W91546  20.739   5.782  51.043
99623W        W91547  47.201  37.702  49.674
99624W        W91548   8.777  31.714  51.958
99625W        W91549  36.203  26.750  53.776
99626W        W91550  20.253  43.217  52.410
99627W        W91551  17.744  22.725  52.878
99628W        W91552  39.724   9.243  50.161
99629W        W91553  37.210  47.685  51.957
99630W        W91554  38.220  19.760  52.419
99631W        W91555  40.216  33.207  52.445
99632W        W91556  37.212  42.682  52.876
99633W        W91557   8.739   6.772  49.695
99634W        W91558  14.773  47.709  52.887
99635W        W91559  16.766  31.720  52.865
99636W        W91560  23.738   5.779  53.775
99637W        W91561  31.734  26.209  49.701
99638W        W91562  47.719  23.724  49.673
99639W        W91563  39.193  35.205  51.509
99640W        W91564  37.731  29.212  52.418
99641W        W91565  15.756   0.256  53.813
99642W        W91566   8.778  39.691  50.163
99643W        W91567   2.250   5.278  49.699
99644W        W91568  44.706  41.706  53.808
99645W        W91569  17.762  30.231  53.356
99646W        W91570  43.197  14.231  50.131
99647W        W91571  16.730  27.252  49.702
99648W        W91572   2.257  35.729  53.809
99649W        W91573  15.742  41.728  50.602
99650W        W91574   7.744  25.252  52.870
99651W        W91575   6.755  41.730  52.446
99652W        W91576  16.265  16.229  51.967
99653W        W91577  28.717   2.264  52.425
99654W        W91578  37.214  27.734  49.704
99655W        W91579  36.219  45.179  50.130
99656W        W91580  37.700  39.733  51.515
99657W        W91581  12.241  40.231  51.957
99658W        W91582   2.280   6.781  49.673
99659W        W91583  10.757   2.786  53.335
99660W        W91584  29.245  47.707  50.131
99661W        W91585   0.270   0.279  51.965
99662W        W91586  16.234   2.273  51.068
99663W        W91587  39.211  46.675  53.813
99664W        W91588  26.254  30.712  51.991
99665W        W91589  34.698  26.749  51.502
99666W        W91590  31.703  25.747  50.122
99667W        W91591  40.209  47.194  51.046
99668W        W91592  20.253   3.747  51.947
99669W        W91593  30.234  36.234  50.596
99670W        W91594  30.237  14.749  50.617
99671W        W91595  30.228  28.716  52.427
99672W        W91596   2.292  28.735  53.793
99673W        W91597  32.214  20.744  49.708
99674W        W91598  31.216   7.779  51.529
99675W        W91599  11.277  35.704  51.498
99676W        W91600  45.724  20.755  51.527
99677W        W91601   1.755  32.721  52.414
99678W        W91602   5.290  14.737  51.060
99679W        W91603   6.755  14.271  49.696
99680W        W91604   5.779  25.720  51.960
99681W        W91605  21.229  15.236  53.359
99682W        W91606  16.224  22.241  52.897
99683W        W91607   4.756  26.734  51.990
99684W        W91608  23.752  35.203  53.792
99685W        W91609  13.749  30.249  53.317
99686W        W91610  20.745  20.230  53.794
99687W        W91611   2.786  19.245  50.125
99688W        W91612  20.263  10.276  51.989
99689W        W91613  19.761  43.205  52.871
99690W        W91614  44.697  18.768  52.883
99691W        W91615  20.244  29.217  51.063
99692W        W91616  45.713  31.734  52.901
99693W        W91617   0.757  20.245  49.677
99694W        W91618  36.719   9.275  52.436
99695W        W91619  26.724  42.188  52.880
99696W        W91620  41.716  15.245  53.319
99697W        W91621  37.209  14.257  51.076
99698W        W91622  19.745  19.263  53.336
99699W        W91623  16.764  14.748  51.985
99700W        W91624   6.256  15.762  50.125
99701W        W91625   9.270  42.692  52.893
99702W        W91626  24.218  10.737  51.956
99703W        W91627   1.286  30.714  50.124
99704W        W91628  31.223  22.743  51.968
99705W        W91629  22.755  39.692  53.333
99706W        W91630  14.272  41.712  51.047
99707W        W91631  32.218  18.745  50.159
99708W        W91632   6.783  17.746  52.429
99709W        W91633  16.264  24.250  50.586
99710W        W91634  25.235  18.747  52.890
99711W        W91635  12.770  18.246  49.705
99712W        W91636  40.715   3.255  51.040
99713W        W91637  39.220  24.753  50.601
99714W        W91638  22.741   0.261  53.351
99715W        W91639   9.248  13.229  51.062
99716W        W91640  16.267  34.702  53.788
99717W        W91641   3.289  10.782  53.323
99718W        W91642  41.196  23.217  50.594
99719W        W91643  16.238  33.205  51.534
99720W        W91644  44.716  18.253  50.137
99721W        W91645  11.279  33.233  50.131
99722W        W91646  44.195  22.753  52.875
99723W        W91647  44.197  20.744  52.878
99724W        W91648  41.708   4.280  51.967
99725W        W91649   4.750  26.213  51.513
99726W        W91650  33.200   7.259  52.422
99727W        W91651  11.251  18.729  51.067
99728W        W91652  22.216  26.238  52.886
99729W        W91653  33.739  29.729  53.814
99730W        W91654  27.214   3.277  53.321
99731W        W91655  15.728  35.230  49.667
99732W        W91656  33.218   7.260  50.598
99733W        W91657  39.698   2.283  52.865
99734W        W91658  45.201  31.199  52.419
99735W        W91659   0.290   8.255  51.972
99736W        W91660  47.221   9.240  52.891
99737W        W91661   4.784  23.716  53.344
99738W        W91662  13.239  14.765  50.157
99739W        W91663  45.186  33.722  51.963
99740W        W91664  11.763   1.795  51.034
99741W        W91665  15.772  13.765  53.336
99742W        W91666  12.771  16.736  51.976
99743W        W91667  34.735  42.190  51.954
99744W        W91668  12.277  44.710  51.531
99745W        W91669  27.228  18.232  51.512
99746W        W91670  40.199  42.701  50.161
99747W        W91671  44.213  16.729  49.705
99748W        W91672  17.266  35.692  51.504
99749W        W91673  21.222  35.195  52.878
99750W        W91674  40.215  29.216  50.595
99751W        W91675  10.279  44.212  51.054
99752W        W91676  36.213   7.744  50.594
99753W        W91677  24.709  46.675  51.531
99754W        W91678  42.193  31.244  51.516
99755W        W91679   6.246   2.750  52.413
99756W        W91680   1.263  13.763  50.601
99757W        W91681  20.246   8.748  52.867
99758W        W91682  37.228   8.251  53.814
99759W        W91683  18.225  43.199  50.601
99760W        W91684   2.249  45.189  53.809
99761W        W91685  39.730  40.695  50.157
99762W        W91686  32.711  46.203  53.784
99763W        W91687  22.738  40.228  51.511
99764W        W91688  34.241  37.713  53.319
99765W        W91689  39.717  12.246  51.967
99766W        W91690   1.257  26.723  53.790
99767W        W91691  35.694  40.701  51.052
99768W        W91692  23.746  39.198  51.036
99769W        W91693   5.262  26.225  51.952
99770W        W91694  39.727   6.271  53.817
99771W        W91695   1.251  18.740  49.690
99772W        W91696  23.258   2.248  53.358
99773W        W91697   8.277  20.254  50.124
99774W        W91698  44.707  19.758  51.074
99775W        W91699   6.770  39.731  53.786
99776W        W91700  34.207  28.239  51.531
99777W        W91701  40.220  41.212  53.337
99778W        W91702  23.247  39.225  51.505
99779W        W91703  48.187  21.222  53.806
99780W        W91704  29.231  34.205  51.077
99781W        W91705  32.718  18.228  51.952
99782W        W91706   3.256  20.759  49.682
99783W        W91707  10.267  32.736  51.041
99784W        W91708  20.236  33.730  52.867
99785W        W91709   7.250   2.259  51.947
99786W        W91710  13.243  11.239  52.413
99787W        W91711  37.201  40.204  51.493
99788W        W91712  36.699  27.213  53.800
99789W        W91713  28.251  17.242  49.696
99790W        W91714  26.717  23.726  53.331
99791W        W91715  30.702  27.226  51.070
99792W        W91716  35.709  38.706  51.053
99793W        W91717  10.736  13.240  50.583
99794W        W91718  27.707   3.744  52.416
99795W        W91719  45.692  27.253  49.691
99796W        W91720  23.250  25.742  52.408
99797W        W91721   1.769  26.246  52.433
99798W        W91722  33.701  31.215  51.534
99799W        W91723   2.770  34.221  49.670
99800W        W91724  27.243  15.258  51.960
99801W        W91725  26.241  30.715  53.787
99802W        W91726   4.293  21.261  53.343
99803W        W91727  47.716   7.747  53.355
99804W        W91728  23.219  44.677  50.604
99805W        W91729  17.260  10.274  52.444
99806W        W91730  47.222  32.236  53.816
99807W        W91731  21.234  24.753  52.876
99808W        W91732  24.745   5.253  53.813
99809W        W91733  11.280  30.200  50.595
99810W        W91734  33.737  32.220  53.817
99811W        W91735  37.708  38.204  49.679
99812W        W91736  10.769   5.290  50.579
99813W        W91737  36.712  36.717  51.982
99814W        W91738  24.256  47.684  50.161
99815W        W91739  45.713  14.734  52.903
99816W        W91740  47.717   2.779  51.517
99817W        W91741   7.265   8.250  52.882
99818W        W91742  48.180  27.244  49.679
99819W        W91743  17.737  11.774  50.593
99820W        W91744  43.212  26.729  52.448
99821W        W91745   9.773  23.220  50.125
99822W        W91746  23.220  23.756  52.420
99823W        W91747  38.237  30.203  52.868
99824W        W91748  38.730   0.291  52.872
99825W        W91749  31.730  21.226  50.124
99826W        W91750  29.233  34.699  53.781
99827W        W91751   1.796  29.714  50.150
99828W        W91752  24.254  38.214  52.432
99829W        W91753  42.689   1.788  51.060
99830W        W91754  41.209  38.215  53.341
99831W        W91755  30.716  18.761  51.969
99832W        W91756   9.243  41.682  52.900
99833W        W91757  33.704  10.769  52.437
99834W        W91758  11.744  32.219  53.339
99835W        W91759  25.717  11.763  50.610
99836W        W91760  38.187  26.218  52.885
99837W        W91761  18.255  11.749  49.709
99838W        W91762  14.266   0.797  50.130
99839W        W91763  43.701   8.783  49.685
99840W        W91764  18.254  25.752  53.339
99841W        W91765  13.739  44.685  52.892
99842W        W91766  43.710  43.701  50.140
99843W        W91767  46.715  18.234  50.588
99844W        W91768  44.190  37.696  53.775
99845W        W91769   9.767   8.763  51.044
99846W        W91770  38.710  34.204  51.491
99847W        W91771   6.748  37.694  52.863
99848W        W91772  26.251  32.228  51.522
99849W        W91773  27.210  20.255  50.593
99850W        W91774  37.196  18.738  53.795
99851W        W91775  38.715   9.284  50.145
99852W        W91776   3.762  36.735  49.670
99853W        W91777   1.792  12.263  52.880
99854W        W91778  20.738  45.177  49.676
99855W        W91779   0.267   6.290  52.419
99856W        W91780  47.214   9.771  51.049
99857W        W91781  39.219  47.191  52.438
99858W        W91782  13.754   9.274  50.584
99859W        W91783  17.743  45.206  53.339
99860W        W91784  33.204   0.278  53.801
99861W        W91785   3.274  27.220  49.702
99862W        W91786  17.267  47.717  50.612
99863W        W91787  30.208  17.243  50.579
99864W        W91788  16.756  40.699  53.332
99865W        W91789  23.249  15.763  50.133
99866W        W91790  20.245   7.780  51.972
99867W        W91791  13.749  24.712  52.411
99868W        W91792  27.728  37.216  51.507
99869W        W91793  47.711   1.281  52.888
99870W        W91794  30.742  30.227  51.532
99871W        W91795  23.717  31.208  53.357
99872W        W91796  36.722   9.269  52.891
99873W        W91797  31.746  22.713  51.505
99874W        W91798  20.741   7.283  51.522
99875W        W91799  22.737  37.735  52.444
99876W        W91800   5.249  45.678  50.137
99877W        W91801   3.275   8.238  50.597
99878W        W91802   5.256  20.755  51.045
99879W        W91803  38.236   7.777  53.323
99880W        W91804   5.242  27.208  50.590
99881W        W91805  10.259   8.761  53.799
99882W        W91806  14.249  19.254  51.492
99883W        W91807  31.736  36.721  53.801
99884W        W91808  14.765  15.243  50.599
99885W        W91809   8.759  30.224  53.796
99886W        W91810   0.271  24.749  51.948
99887W        W91811  11.280   2.263  51.535
99888W        W91812   8.280   7.770  51.534
99889W        W91813   7.783   3.756  53.796
99890W        W91814  44.196  47.672  51.507
99891W        W91815  32.711  13.748  50.579
99892W        W91816   2.754  19.758  50.590
99893W        W91817   4.279  48.218  50.126
99894W        W91818  15.231  26.710  51.076
99895W        W91819  37.192  18.751  52.441
99896W        W91820  17.769  38.729  53.815
99897W        W91821  25.239  25.732  53.330
99898W        W91822  47.700  34.706  51.050
99899W        W91823  13.234   1.785  51.502
99900W        W91824   1.252  10.759  51.037
99901W        W91825   6.286  22.737  50.586
99902W        W91826  39.233  37.713  53.777
99903W        W91827  29.233  18.223  52.900
99904W        W91828  27.716  43.179  49.677
99905W        W91829  14.242  21.755  51.063
99906W        W91830  42.712   3.284  50.157
99907W        W91831  28.704  41.729  51.492
99908W        W91832  26.214  13.755  50.159
99909W        W91833   7.762  16.724  50.614
99910W        W91834  33.224  31.209  50.132
99911W        W91835  32.233  44.198  51.988
99912W        W91836   2.750  47.209  51.062
99913W        W91837  13.734  19.753  52.409
99914W        W91838  17.244   1.795  51.532
99915W        W91839  34.716  45.678  50.137
99916W        W91840  43.201  44.226  52.902
99917W        W91841  17.238  37.202  53.772
99918W        W91842  40.715  46.216  52.414
99919W        W91843  48.180  15.258  50.165
99920W        W91844  47.185   7.273  53.355
99921W        W91845  25.224  38.188  52.889
99922W        W91846  46.221  36.235  53.783
99923W        W91847   8.767  28.229  53.796
99924W        W91848  42.719  21.255  53.354
99925W        W91849  44.227  30.731  52.418
99926W        W91850  21.262  38.726  51.047
99927W        W91851  41.195  16.734  53.320
99928W        W91852  38.187  23.756  52.904
99929W        W91853  43.716  46.706  52.871
99930W        W91854  30.712  17.758  51.034
99931W        W91855  15.753  38.235  49.690
99932W        W91856  27.716  16.227  50.152
99933W        W91857  11.735  15.759  51.947
99934W        W91858  36.711  44.709  49.669
99935W        W91859  16.766  32.205  52.432
99936W        W91860  22.220   7.767  51.051
99937W        W91861  10.277   7.760  51.964
99938W        W91862  28.715  19.766  51.976
99939W        W91863  21.233   6.785  53.776
99940W        W91864  37.193  45.177  51.976
99941W        W91865   9.283  27.218  53.797
99942W        W91866  16.763   6.255  50.137
99943W        W91867  28.226  11.733  51.498
99944W        W91868   8.736  27.244  53.797
99945W        W91869  10.734  39.215  53.350
99946W        W91870  42.219  12.765  52.437
99947W        W91871  11.280  33.732  50.579
99948W        W91872  11.756  16.732  53.344
99949W        W91873  17.750  28.228  51.528
99950W        W91874  16.250  25.757  51.970
99951W        W91875  26.231   1.253  50.163
99952W        W91876  30.741   8.766  50.602
99953W        W91877  34.740  20.257  49.709
99954W        W91878  28.711   4.770  52.437
99955W        W91879  11.758  27.717  51.053
99956W        W91880  36.739  43.223  50.121
99957W        W91881  47.186  38.198  50.577
99958W        W91882  38.699  37.732  53.805
99959W        W91883  24.260   1.260  52.405
99960W        W91884   2.748   6.743  51.056
99961W        W91885  18.724  29.248  49.679
99962W        W91886  24.721  17.228  52.883
99963W        W91887   0.759  38.734  49.679
99964W        W91888  33.240  45.712  51.071
99965W        W91889   3.254  10.246  52.412
99966W        W91890  31.698  34.702  53.799
99967W        W91891  40.220  45.703  52.871
99968W        W91892  36.703   4.249  52.436
99969W        W91893  43.221  19.240  51.985
99970W        W91894   5.246  18.730  51.060
99971W        W91895  38.705  43.681  52.437
99972W        W91896  46.721  13.229  51.505
99973W        W91897  13.268  41.196  50.577
99974W        W91898  29.705  17.750  51.980
99975W        W91899  19.742  12.748  52.448
99976W        W91900  22.260   0.278  50.151
99977W        W91901  13.256   4.792  51.977
99978W        W91902  47.676  20.718  50.610
99979W        W91903  10.776  39.719  51.960
99980W        W91904  44.689  19.232  52.417
99981W        W91905  11.272  36.727  52.417
99982W        W91906  24.249  11.271  53.798
99983W        W91907  26.748  12.233  50.607
99984W        W91908  47.209   8.248  51.980
99985W        W91909  20.223  31.247  53.798
99986W        W91910   7.276  15.763  53.792
99987W        W91911   7.783  47.202  50.611
99988W        W91912  11.765  37.191  52.415
99989W        W91913   2.280  40.211  51.972
99990W        W91914  42.230  41.687  51.075
99991W        W91915  36.230   9.269  51.529
99992W        W91916  18.247   9.282  52.412
99993W        W91917  11.764  23.742  51.948
99994W        W91918  39.689  15.235  53.337
99995W        W91919   8.752   0.763  53.359
99996W        W91920  38.199  44.723  52.411
99997W        W91921  38.204  14.763  50.154
99998W        W91922  42.188  28.235  51.949
99999W        W91923  13.258  43.203  53.321
    0W        W91924  46.209  23.240  49.667
    1W        W91925   5.749  41.714  50.603
    2W        W91926  33.712  12.776  53.339
    3W        W91927   2.293  35.229  49.693
    4W        W91928   7.783  10.755  52.878
    5W        W91929   3.257  14.275  52.416
    6W        W91930  37.229  35.715  53.331
    7W        W91931  40.219  46.701  49.694
    8W        W91932  20.745  34.740  51.532
    9W        W91933  22.713  40.697  51.064
   10W        W91934  15.226  18.240  52.408
   11W        W91935  39.189   8.284  50.135
   12W        W91936  38.189  37.215  51.534
   13W        W91937  37.200  10.756  51.047
   14W        W91938  40.222  46.188  53.808
   15W        W91939   4.755  45.211  51.501
   16W        W91940  15.762  19.745  50.125
   17W        W91941   0.277  16.768  53.352
   18W        W91942  12.237  29.239  52.874
   19W        W91943  16.271  27.737  51.980
   20W        W91944  40.230  23.744  53.324
   21W        W91945  42.728  35.230  51.046
   22W        W91946  11.778  24.743  53.802
   23W        W91947  17.249  45.692  52.415
   24W        W91948  18.232  24.223  51.075
   25W        W91949  28.727   0.778  51.969
   26W        W91950  42.702  21.749  52.438
   27W        W91951   4.769  25.211  51.525
   28W        W91952  29.214  48.213  52.887
   29W        W91953  10.251  39.734  53.794
   30W        W91954  41.692   9.735  52.874
   31W        W91955  44.677  31.212  51.059
   32W        W91956  48.184  15.249  50.610
   33W        W91957  10.279  33.220  51.986
   34W        W91958  21.740   7.750  50.588
   35W        W91959  26.718  15.750  51.501
   36W        W91960  15.743   3.269  50.579
   37W        W91961  23.743  46.697  50.140
   38W        W91962   1.788  38.215  51.534
   39W        W91963  45.699  22.263  50.609
   40W        W91964  40.728   3.274  49.674
   41W        W91965  23.718  36.238  53.793
   42W        W91966  27.233  31.723  50.600
   43W        W91967   1.786  17.251  51.498
   44W        W91968  29.726  23.242  49.691
   45W        W91969  26.252   4.768  53.775
   46W        W91970  17.731  34.202  52.888
   47W        W91971  44.180  42.223  52.866
   48W        W91972  35.731  28.737  53.789
   49W        W91973  26.215  35.737  51.491
   50W        W91974  17.752  34.236  50.598
   51W        W91975  15.767  46.712  49.673
   52W        W91976  15.729  48.211  51.492
   53W        W91977  37.224   4.761  50.155
   54W        W91978  43.681   2.748  53.359
   55W        W91979   2.760  27.740  53.809
   56W        W91980  22.739  31.237  51.987
   57W        W91981  35.704  23.225  50.610
   58W        W91982  47.695  21.238  51.496
   59W        W91983  22.721  35.204  52.893
   60W        W91984  48.188  20.222  51.078
   61W        W91985  33.219  43.721  53.773
   62W        W91986  47.683  24.753  49.704
   63W        W91987   8.743   5.251  50.164
   64W        W91988  47.174   1.295  51.046
   65W        W91989  18.221  34.712  49.687
   66W        W91990  23.755   1.761  52.415
   67W        W91991  37.720  11.277  53.787
   68W        W91992  29.732  22.739  51.985
   69W        W91993  40.698   8.765  51.981
   70W        W91994  42.217   4.761  53.774
   71W        W91995  29.212   1.264  52.880
   72W        W91996  21.224  40.711  49.707
   73W        W91997  20.259  14.769  52.442
   74W        W91998  10.275   5.264  51.964
   75W        W91999  30.209  31.244  52.866
   76W        W92000  17.764  38.223  51.078
   77W        W92001  32.704  29.234  53.782
   78W        W92002  18.250  25.720  49.705
   79W        W92003  22.226  30.724  49.699
   80W        W92004  24.737  28.235  51.065
   81W        W92005   9.256  31.226  52.420
   82W        W92006  39.212  31.737  53.326
   83W        W92007  26.728   6.280  50.166
   84W        W92008  32.724  36.198  52.892
   85W        W92009  37.714  46.690  52.423
   86W        W92010   4.290  37.226  53.781
   87W        W92011  46.187  11.263  51.038
   88W        W92012  21.258  27.709  49.668
   89W        W92013  47.700  32.704  50.577
   90W        W92014  33.240  18.729  52.446
   91W        W92015  40.720  28.741  53.785
   92W        W92016  37.213  34.240  52.866
   93W        W92017  20.745  33.744  52.866
   94W        W92018  48.200  29.206  49.673
   95W        W92019  31.747  39.220  51.976
   96W        W92020  19.236  31.719  51.491
   97W        W92021  47.217   3.285  49.676
   98W        W92022  34.717  35.733  49.670
   99W        W92023  16.250   6.264  52.864
  100W        W92024  21.743   6.785  53.781
  101W        W92025  14.775  28.708  50.128
  102W        W92026   3.783  40.226  53.316
  103W        W92027  37.206  47.706  52.418
  104W        W92028  47.703  14.253  51.527
  105W        W92029  38.208  31.742  51.971
  106W        W92030  35.214  41.714  51.037
  107W        W92031  24.716  33.226  51.521
  108W        W92032  19.245  31.226  50.604
  109W        W92033  31.718  28.731  51.977
  110W        W92034  44.724   0.276  51.511
  111W        W92035  25.248  41.682  53.322
  112W        W92036   4.251  31.741  52.889
  113W        W92037  47.214  23.255  52.442
  114W        W92038  19.727  43.204  50.129
  115W        W92039  17.757  30.249  51.046
  116W        W92040  47.184  25.212  53.784
  117W        W92041  11.749   4.785  52.424
  118W        W92042  21.255  34.215  52.432
  119W        W92043  15.753  30.231  52.445
  120W        W92044  43.220  27.235  49.706
  121W        W92045  38.234  40.231  52.864
  122W        W92046  29.216  27.253  49.706
  123W        W92047  11.243  38.690  51.034
  124W        W92048  34.208  25.221  49.675
  125W        W92049  35.735   0.264  49.666
  126W        W92050   0.780  19.246  51.513
  127W        W92051   3.248   8.785  52.883
  128W        W92052  41.227  33.215  53.349
  129W        W92053  40.222  24.210  51.522
  130W        W92054  15.260   5.754  51.049
  131W        W92055  14.746  28.248  49.698
  132W        W92056  39.685  14.752  52.447
  133W        W92057  40.699   6.772  49.667
  134W        W92058  31.212  36.198  49.666
  135W        W92059  45.684  45.195  52.864
  136W        W92060  14.233   1.789  52.427
  137W        W92061  11.756  45.710  53.345
  138W        W92062  19.750   4.781  53.335
  139W        W92063  27.228   0.274  51.505
  140W        W92064  45.190  28.726  52.870
  141W        W92065  46.707  10.282  51.987
  142W        W92066  36.717   5.761  52.871
  143W        W92067  42.719  41.701  49.665
  144W        W92068  35.700  45.181  51.956
  145W        W92069   0.252  27.740  52.903
  146W        W92070  46.184  44.200  49.699
  147W        W92071  38.220   1.778  49.699
  148W        W92072  43.228  12.236  53.338
  149W        W92073  36.736  45.719  51.956
  150W        W92074   5.770   6.256  53.816
  151W        W92075  26.224   3.272  53.342
  152W        W92076  46.686  23.256  49.692
  153W        W92077   9.242  35.710  49.672
  154W        W92078   0.786  42.714  50.142
  155W        W92079   9.769  27.227  52.879
  156W        W92080  30.219  25.221  49.693
  157W        W92081  43.189  17.769  51.530
  158W        W92082  42.182  27.226  52.883
  159W        W92083   2.768   9.264  52.886
  160W        W92084  27.239  18.228  51.073
  161W        W92085   6.782   5.276  51.038
  162W        W92086  29.729  32.245  53.344
  163W        W92087  37.735  13.252  53.773
  164W        W92088   4.771  21.223  51.068
  165W        W92089  47.689   9.757  52.418
  166W        W92090   8.769  44.191  51.523
  167W        W92091  22.730  20.743  49.672
  168W        W92092  32.235  34.707  50.585
  169W        W92093   1.786   6.766  50.615
  170W        W92094  24.251  43.193  51.035
  171W        W92095   9.772  33.716  49.679
  172W        W92096   0.777  21.734  51.968
  173W        W92097  24.716  47.697  51.052
  174W        W92098  17.244  42.696  52.891
  175W        W92099  14.764  14.227  52.445
  176W        W92100  15.761   3.757  51.041
  177W        W92101   6.252  48.186  51.972
  178W        W92102  12.258  22.717  51.074
  179W        W92103  18.762  34.717  51.534
  180W        W92104  28.724  44.190  49.698
  181W        W92105   4.264  15.263  52.894
  182W        W92106  28.210  36.726  51.969
  183W        W92107  13.242   9.750  51.521
  184W        W92108   4.253  15.767  50.607
  185W        W92109  28.744   1.277  49.697
  186W        W92110  15.761  42.210  51.065
  187W        W92111  45.715  22.756  50.585
  188W        W92112   6.246  48.187  52.869
  189W        W92113   9.742  37.735  53.778
  190W        W92114  25.257  18.239  50.135
  191W        W92115   3.761  33.721  50.134
  192W        W92116  25.241  37.236  50.161
  193W        W92117  33.714  33.208  49.682
  194W        W92118  31.705  41.227  50.156
  195W        W92119  35.704  17.737  51.070
  196W        W92120  41.723  26.251  53.355
  197W        W92121   5.783  13.774  52.873
  198W        W92122  48.213  42.712  52.871
  199W        W92123  17.233  43.689  53.356
  200W        W92124  18.268  11.269  51.514
  201W        W92125  37.231  33.704  53.323
  202W        W92126  47.690  41.229  52.899
  203W        W92127  25.256  31.728  50.127
  204W        W92128  41.691  48.211  50.143
  205W        W92129  46.197   4.271  52.898
  206W        W92130  45.181  39.226  53.322
  207W        W92131  14.272  47.700  52.432
  208W        W92132  43.692   4.762  50.591
  209W        W92133   8.762  15.762  53.792
  210W        W92134  36.691   4.768  51.512
  211W        W92135  21.244   5.749  53.779
  212W        W92136  42.709   8.262  51.971
  213W        W92137  31.225  20.727  51.074
  214W        W92138   2.294   9.783  50.611
  215W        W92139  19.234   9.737  53.316
  216W        W92140  34.693  46.678  51.952
  217W        W92141  47.693   0.298  50.138
  218W        W92142  15.237  23.760  53.358
  219W        W92143  41.206  19.763  50.129
  220W        W92144  10.263  15.774  53.811
  221W        W92145  39.229  13.243  51.065
  222W        W92146  44.694   1.776  50.153
  223W        W92147  14.748  31.245  52.425
  224W        W92148  15.768  17.247  51.958
  225W        W92149  17.731   6.270  51.054
  226W        W92150  10.249  43.682  53.798
  227W        W92151  44.726  30.202  50.611
  228W        W92152  37.705   1.249  52.425
  229W        W92153   6.766  11.242  51.061
  230W        W92154  38.194  30.231  53.776
  231W        W92155  23.751   6.748  52.880
  232W        W92156  13.277  36.710  52.881
  233W        W92157  26.733   8.757  51.512
  234W        W92158  32.731  27.736  53.334
  235W        W92159   8.752  37.232  50.607
  236W        W92160  20.265  24.726  49.702
  237W        W92161  25.735  45.183  51.519
  238W        W92162   9.780   9.740  49.669
  239W        W92163   0.774   9.260  50.583
  240W        W92164  11.745  16.244  51.075
  241W        W92165  22.734   4.291  52.871
  242W        W92166  36.736  39.199  52.408
  243W        W92167  17.227  43.690  52.897
  244W        W92168  28.703   8.756  51.067
  245W        W92169  19.225  22.715  53.779
  246W        W92170  35.217  16.242  51.070
  247W        W92171  43.687  12.754  52.437
  248W        W92172  44.196  48.181  51.532
  249W        W92173  22.722  44.191  51.056
  250W        W92174   8.777  32.215  53.796
  251W        W92175  17.260  18.764  50.148
  252W        W92176  13.234  12.276  51.971
  253W        W92177   1.795   5.261  51.986
  254W        W92178  39.186  43.185  49.672
  255W        W92179  44.208  43.206  50.129
  256W        W92180  35.220   0.255  52.893
  257W        W92181  27.217  14.770  51.034
  258W        W92182  44.726   0.759  50.145
  259W        W92183  16.270   2.788  53.806
  260W        W92184  30.727  13.733  51.495
  261W        W92185  24.726  14.235  53.321
  262W        W92186  19.763  15.270  49.706
  263W        W92187   4.279  30.218  51.507
  264W        W92188  39.707  35.700  50.599
  265W        W92189  29.210  23.738  52.430
  266W        W92190  16.743  40.218  50.580
  267W        W92191  29.743  30.228  49.684
  268W        W92192   6.766  18.266  51.985
  269W        W92193  17.223  30.213  51.952
  270W        W92194  46.186   0.754  52.902
  271W        W92195  35.227  13.761  51.954
  272W        W92196  11.237  40.200  52.420
  273W        W92197   0.283  31.731  49.699
  274W        W92198  44.181  24.212  52.876
  275W        W92199  40.716  45.222  51.493
  276W        W92200  45.204  42.203  49.690
  277W        W92201  48.178  31.700  53.797
  278W        W92202  30.719  43.713  49.665
  279W        W92203  15.246   8.768  51.964
  280W        W92204  28.226  29.731  52.902
  281W        W92205  25.250  21.730  51.035
  282W        W92206  22.231  41.707  50.124
  283W        W92207  48.210  37.211  53.344
  284W        W92208  36.210  23.226  53.347
  285W        W92209  26.220  42.223  50.141
  286W        W92210  21.232   1.291  52.415
  287W        W92211   4.250  18.238  53.775
  288W        W92212  31.721  14.747  52.893
  289W        W92213   7.281   0.256  50.123
  290W        W92214   6.781   0.285  50.153
  291W        W92215  31.746  39.716  51.507
  292W        W92216  26.220  37.224  50.610
  293W        W92217   2.771  14.267  49.668
  294W        W92218  17.763  27.246  52.890
  295W        W92219  26.227  47.689  53.358
  296W        W92220  43.224  36.726  51.527
  297W        W92221  15.270  10.237  52.889
  298W        W92222   5.757  16.231  51.510
  299W        W92223   6.760  31.235  51.984
  300W        W92224   7.253  40.204  51.036
  301W        W92225  40.231  21.228  50.127
  302W        W92226  44.216  11.249  49.705
  303W        W92227  28.741  33.739  53.335
  304W        W92228  27.223  48.171  50.145
  305W        W92229  28.223  15.772  51.513
  306W        W92230   7.253  38.724  50.133
  307W        W92231  20.748  40.689  50.601
  308W        W92232   0.259  17.233  51.047
  309W        W92233  20.219  26.222  51.513
  310W        W92234  17.759  27.723  52.428
  311W        W92235  20.760  47.694  50.600
  312W        W92236  37.208  27.710  52.859
  313W        W92237   0.763   4.774  51.494
  314W        W92238  21.716  45.686  53.778
  315W        W92239  16.753   1.255  50.579
  316W        W92240  35.701  12.271  51.505
  317W        W92241  46.199   6.278  50.152
  318W        W92242  23.746   2.764  49.700
  319W        W92243  26.722  40.721  52.870
  320W        W92244  38.223  28.247  49.672
  321W        W92245  39.199  33.234  50.613
  322W        W92246   1.753  36.216  50.587
  323W        W92247  19.267  13.246  51.518
  324W        W92248   8.247  26.723  50.165
  325W        W92249  32.230  47.697  50.616
  326W        W92250  37.195  29.745  51.078
  327W        W92251   8.751   8.243  51.040
  328W        W92252  42.713  28.737  51.497
  329W        W92253  29.240  35.213  51.512
  330W        W92254  43.690  31.736  52.424
  331W        W92255  30.240  33.208  53.804
  332W        W92256  22.762  45.223  51.505
  333W        W92257  33.744  15.734  50.594
  334W        W92258  17.270  34.216  51.523
  335W        W92259  10.278  26.725  49.687
  336W        W92260  12.232  34.202  52.417
  337W        W92261  29.237  23.739  51.518
  338W        W92262  31.208  39.701  50.610
  339W        W92263  41.730   2.288  49.667
  340W        W92264  36.234  31.710  50.125
  341W        W92265  13.747   3.764  49.672
  342W        W92266   6.256  33.222  51.063
  343W        W92267   0.788  16.269  49.669
  344W        W92268  29.749  42.223  51.984
  345W        W92269  43.689  40.218  50.593
  346W        W92270   0.764  16.269  51.960
  347W        W92271  31.243   8.770  52.894
  348W        W92272  40.702  18.248  50.143
  349W        W92273  24.733  11.257  50.595
  350W        W92274  32.209  31.244  53.814
  351W        W92275  12.263  24.218  51.493
  352W        W92276   7.763  17.236  51.968
  353W        W92277  23.756  40.718  51.047
  354W        W92278  34.695   1.266  51.987
  355W        W92279  28.726  30.243  49.665
  356W        W92280  45.720   1.273  53.807
  357W        W92281  39.729  44.688  49.685
  358W        W92282  19.266   9.237  50.604
  359W        W92283  42.697   5.278  51.509
  360W        W92284   5.741   3.757  51.070
  361W        W92285  21.249  23.222  49.685
  362W        W92286  37.236  13.740  49.682
  363W        W92287  46.684  18.725  50.582
  364W        W92288  41.225   8.776  52.881
  365W        W92289   9.270   0.275  50.146
  366W        W92290  36.201   4.746  49.689
  367W        W92291  17.254  26.742  49.679
  368W        W92292  19.761  17.764  51.056
  369W        W92293  31.718  24.226  51.076
  370W        W92294  22.218  16.746  50.610
  371W        W92295  25.757   7.263  49.709
  372W        W92296  44.220  40.698  50.590
  373W        W92297  14.746  28.717  50.585
  374W        W92298   8.280  42.229  50.155
  375W        W92299  26.212  23.234  51.975
  376W        W92300  14.253   2.763  52.415
  377W        W92301   6.760  33.236  51.968
  378W        W92302   8.237  33.743  52.438
  379W        W92303  22.214   3.271  53.348
  380W        W92304  38.708  20.726  52.425
  381W        W92305  34.196  39.219  53.773
  382W        W92306  22.720  37.713  50.136
  383W        W92307  41.190  47.671  53.778
  384W        W92308  21.240  44.197  52.424
  385W        W92309  14.248   8.749  53.814
  386W        W92310   5.275   6.270  51.982
  387W        W92311  10.767   3.285  53.813
  388W        W92312  34.700  10.736  53.775
  389W        W92313  22.751  38.706  51.972
  390W        W92314  29.749  11.270  49.667
  391W        W92315  35.208  35.705  50.581
  392W        W92316  10.262  31.247  53.344
  393W        W92317  26.210   0.263  49.709
  394W        W92318  14.231  16.763  51.962
  395W        W92319  13.249  29.239  51.506
  396W        W92320  27.249  21.744  53.354
  397W        W92321  32.730   5.242  51.078
  398W        W92322  33.743  36.217  50.607
  399W        W92323  17.751  44.182  51.520
  400W        W92324  41.185   9.774  52.423
  401W        W92325   7.259  15.729  51.958
  402W        W92326  46.677  32.228  51.522
  403W        W92327   0.776  10.237  53.334
  404W        W92328  16.256   3.264  51.971
  405W        W92329  27.246  19.232  53.816
  406W        W92330  23.219  18.733  51.058
  407W        W92331  45.684  19.232  51.973
  408W        W92332  26.726  18.749  50.611
  409W        W92333   5.241   5.288  51.985
  410W        W92334  16.769   0.264  51.530
  411W        W92335  28.208   7.251  53.807
  412W        W92336  12.235  14.757  51.056
  413W        W92337  33.729  46.694  51.514
  414W        W92338  28.223  20.751  52.880
  415W        W92339   3.268   0.296  52.872
  416W        W92340  46.222  18.764  49.704
  417W        W92341  40.233  27.722  51.493
  418W        W92342  15.258  27.713  53.812
  419W        W92343  22.713  34.231  50.618
  420W        W92344  36.707  36.213  51.057
  421W        W92345  39.229  43.728  51.526
  422W        W92346  26.233  26.732  51.076
  423W        W92347  14.756  19.755  51.532
  424W        W92348  41.718   4.245  53.333
  425W        W92349  43.189  46.221  50.619
  426W        W92350  19.755  35.194  51.973
  427W        W92351   7.761  43.186  50.130
  428W        W92352  43.696  33.221  53.347
  429W        W92353  40.228   1.766  51.499
  430W        W92354  13.773   8.280  51.955
  431W        W92355   9.736  21.720  51.036
  432W        W92356   8.756   7.283  50.587
  433W        W92357  42.706  26.223  51.034
  434W        W92358  23.760   8.768  53.792
  435W        W92359  10.279   3.259  51.496
  436W        W92360  46.210  34.216  49.677
  437W        W92361  30.713  14.756  50.611
  438W        W92362  23.756  18.253  51.051
  439W        W92363  28.743  14.239  51.524
  440W        W92364  40.225  28.205  53.331
  441W        W92365  34.721  24.223  52.447
  442W        W92366  23.737   4.268  51.514
  443W        W92367  20.241  34.712  51.055
  444W        W92368  35.737  25.753  53.788
  445W        W92369   5.254  11.778  50.123
  446W        W92370  21.732   0.286  49.669
  447W        W92371  34.721  27.705  50.593
  448W        W92372  41.200  12.244  51.961
  449W        W92373  44.686   4.262  50.151
  450W        W92374  43.708  16.237  52.431
  451W        W92375  48.188   2.291  50.131
  452W        W92376  36.698  29.246  51.956
  453W        W92377  24.749  30.709  53.350
  454W        W92378  48.217  30.206  51.957
  455W        W92379  40.727  30.714  52.890
  456W        W92380  44.716  15.726  50.592
  457W        W92381   1.775  35.211  53.352
  458W        W92382  26.754   9.761  52.442
  459W        W92383  42.700  15.254  50.600
  460W        W92384  31.246  40.221  49.678
  461W        W92385   6.248   1.281  51.033
  462W        W92386  16.266  14.266  51.972
  463W        W92387  42.227  48.205  51.509
  464W        W92388  23.755   1.771  50.610
  465W        W92389  25.241  17.725  50.147
  466W        W92390  45.214  10.255  51.521
  467W        W92391   3.761  28.213  53.326
  468W        W92392  34.738  38.688  50.588
  469W        W92393  26.251  18.239  53.352
  470W        W92394  42.202   9.245  49.692
  471W        W92395  25.742  43.195  51.979
  472W        W92396  21.763   5.764  52.904
  473W        W92397  10.251   6.751  51.948
  474W        W92398   6.256  28.722  51.041
  475W        W92399   3.757  43.185  51.038
  476W        W92400  14.740  31.712  51.953
  477W        W92401  47.213  46.686  53.329
  478W        W92402   2.750  47.185  50.163
  479W        W92403  21.242  33.244  51.982
  480W        W92404  34.721   2.757  49.692
  481W        W92405  34.217   2.295  51.991
  482W        W92406   2.268   6.762  53.772
  483W        W92407   5.769  30.242  50.603
  484W        W92408  45.192  47.689  50.123
  485W        W92409  30.216  45.693  51.973
  486W        W92410  23.226  24.715  52.438
  487W        W92411   5.286  39.710  51.535
  488W        W92412  40.197   0.769  52.871
  489W        W92413  15.259  47.197  50.595
  490W        W92414  25.736  33.215  51.974
  491W        W92415   1.266   7.243  52.904
  492W        W92416  38.193   7.253  53.346
  493W        W92417  19.263  35.224  53.359
  494W        W92418  18.236   8.243  49.701
  495W        W92419  22.721  25.734  52.436
  496W        W92420  31.709  40.206  49.676
  497W        W92421  35.702  43.215  51.490
  498W        W92422  45.710   8.785  51.059
  499W        W92423  15.759   4.250  52.885
  500W        W92424  44.680   2.260  51.053
  501W        W92425   7.277  15.274  51.522
  502W        W92426  13.258   1.788  51.074
  503W        W92427  14.258  15.771  52.421
  504W        W92428  39.209  31.245  52.426
  505W        W92429  12.732  35.705  52.410
  506W        W92430  34.716  43.179  53.787
  507W        W92431   5.761   0.750  53.795
  508W        W92432   3.281  43.182  53.777
  509W        W92433  47.685  25.238  52.436
  510W        W92434  29.224  14.256  52.417
  511W        W92435   6.267  11.260  53.352
  512W        W92436  19.227  46.713  51.530
  513W        W92437  38.237  46.710  50.604
  514W        W92438   9.274   6.757  50.587
  515W        W92439   5.743  45.705  51.055
  516W        W92440   6.263  42.706  50.592
  517W        W92441  47.201  34.694  51.510
  518W        W92442  13.730  28.217  49.674
  519W        W92443  41.683  13.757  53.330
  520W        W92444  13.770  47.177  53.341
  521W        W92445  23.713  40.683  53.342
  522W        W92446  48.194  46.222  51.054
  523W        W92447  17.235  14.726  51.951
  524W        W92448  27.732   5.270  51.533
  525W        W92449  17.736  23.241  51.071
  526W        W92450  45.200  22.731  52.881
  527W        W92451   4.254  22.225  52.423
  528W        W92452  11.775   1.291  50.123
  529W        W92453  31.224  14.247  50.143
  530W        W92454  22.719  39.734  50.605
  531W        W92455  37.731   7.270  51.979
  532W        W92456   4.781  47.193  50.589
  533W        W92457  18.223  14.761  50.164
  534W        W92458   9.262   7.273  49.702
  535W        W92459  28.740  32.734  52.432
  536W        W92460  22.220  36.734  52.866
  537W        W92461  19.268  45.691  49.707
  538W        W92462  11.733  41.717  50.155
  539W        W92463  22.230   3.293  50.136
  540W        W92464  44.177  13.735  50.584
  541W        W92465  18.740   0.297  53.340
  542W        W92466  48.202  25.212  53.349
  543W        W92467  38.702  45.723  50.606
  544W        W92468   2.294  24.741  50.593
  545W        W92469  38.690  23.760  51.057
  546W        W92470  29.729  30.223  50.585
  547W        W92471  18.240  39.222  51.505
  548W        W92472  24.236  21.751  53.815
  549W        W92473  36.695  26.208  53.326
  550W        W92474  35.199  39.731  52.890
  551W        W92475   4.286  14.753  52.881
  552W        W92476  18.752  20.232  51.509
  553W        W92477  35.227  10.749  51.060
  554W        W92478  17.732   6.258  53.788
  555W        W92479  44.710  36.698  50.584
  556W        W92480  26.216  43.221  51.947
  557W        W92481  33.698  13.748  52.904
  558W        W92482  14.769  13.260  51.059
  559W        W92483   5.243  35.206  50.599
  560W        W92484  26.251   2.251  49.689
  561W        W92485   8.285  30.236  50.154
  562W        W92486  21.229  22.254  50.165
  563W        W92487  25.244  45.191  53.790
  564W        W92488  10.757  29.701  52.862
  565W        W92489  40.704  26.721  51.050
  566W        W92490   7.249   3.759  53.331
  567W        W92491  20.761  15.766  52.878
  568W        W92492  11.745  16.255  53.802
  569W        W92493  27.215  12.231  52.877
  570W        W92494  36.205  24.221  52.446
  571W        W92495  44.679  32.729  51.074
  572W        W92496  37.194  24.726  53.814
  573W        W92497   7.274  10.264  53.360
  574W        W92498   9.281   3.286  50.584
  575W        W92499  30.215  46.195  49.697
  576W        W92500  11.237   0.281  51.059
  577W        W92501  19.729  22.723  53.328
  578W        W92502  40.207  24.710  51.531
  579W        W92503   4.268  30.738  52.403
  580W        W92504   5.748   7.275  51.038
  581W        W92505  16.730  26.235  52.885
  582W        W92506  19.238  20.732  50.166
  583W        W92507  32.227  15.226  50.129
  584W        W92508  16.233  12.256  49.703
  585W        W92509  42.185  41.206  50.154
  586W        W92510   5.744  46.222  50.584
  587W        W92511  17.226   5.257  50.147
  588W        W92512  20.252  24.250  53.783
  589W        W92513   7.739  28.712  51.951
  590W        W92514  15.252  36.696  51.968
  591W        W92515  30.211  30.749  53.331
  592W        W92516  47.716  41.703  50.602
  593W        W92517   0.776  32.205  51.078
  594W        W92518   1.765  27.249  51.523
  595W        W92519   0.295  13.233  51.979
  596W        W92520  15.252   2.751  51.078
  597W        W92521   7.745  15.738  51.073
  598W        W92522  41.701  45.206  53.799
  599W        W92523  13.728  38.198  49.674
  600W        W92524  21.743   6.778  52.880
  601W        W92525  14.245  39.231  53.316
  602W        W92526  17.263  14.275  49.669
  603W        W92527  41.730  44.690  51.041
  604W        W92528   3.292  21.715  52.441
  605W        W92529  43.723  42.204  50.583
  606W        W92530   9.237  17.743  53.352
  607W        W92531   5.258  39.725  51.040
  608W        W92532  29.714  45.683  52.445
  609W        W92533  10.249  29.216  52.409
  610W        W92534   4.787  12.239  52.413
  611W        W92535  21.754  45.689  51.056
  612W        W92536  46.710   7.744  50.622
  613W        W92537  31.723  31.209  51.501
  614W        W92538   5.749  25.755  51.511
  615W        W92539   6.783  18.258  53.809
  616W        W92540  45.195  20.737  49.695
  617W        W92541  43.718  21.738  53.779
  618W        W92542  43.185  23.226  51.986
  619W        W92543   1.784  46.680  51.048
  620W        W92544  12.771  32.217  50.601
  621W        W92545   0.784  15.747  53.793
  622W        W92546  46.696   9.765  53.322
  623W        W92547   4.744  16.268  51.953
  624W        W92548  34.728  11.239  51.987
  625W        W92549  28.751   0.261  49.695
  626W        W92550  32.208  39.233  53.775
  627W        W92551  31.218  20.747  53.358
  628W        W92552   6.276  24.717  52.416
  629W        W92553  27.223  45.703  50.611
  630W        W92554  29.719  13.246  51.044
  631W        W92555  20.718  23.231  51.050
  632W        W92556  47.207   6.248  52.870
  633W        W92557  17.250  20.257  50.611
  634W        W92558  42.194  14.255  53.781
  635W        W92559  47.183  31.226  51.972
  636W        W92560   6.741  15.228  51.974
  637W        W92561  11.234  35.204  50.161
  638W        W92562   6.785  14.731  53.788
  639W        W92563   7.264  13.252  52.445
  640W        W92564  33.232  41.231  52.886
  641W        W92565  23.741  14.231  52.861
  642W        W92566  20.749  25.739  53.775
  643W        W92567  17.764   4.279  50.140
  644W        W92568  47.709  20.217  51.950
  645W        W92569   2.294  41.711  51.522
  646W        W92570  14.755  39.187  52.438
  647W        W92571  33.715  14.274  50.581
  648W        W92572  36.722  15.260  51.505
  649W        W92573  17.770  30.709  51.980
  650W        W92574   2.274   0.291  52.867
  651W        W92575  27.731  39.186  52.446
  652W        W92576  39.212  32.704  53.320
  653W        W92577  44.196  22.725  50.136
  654W        W92578  27.737  43.693  52.902
  655W        W92579  36.193  18.768  51.070
  656W        W92580  32.710  20.746  52.447
  657W        W92581  22.235  23.223  51.531
  658W        W92582  27.210  25.217  50.617
  659W        W92583  43.727  23.214  50.606
  660W        W92584  43.215  48.182  51.535
  661W        W92585  33.204  30.216  51.519
  662W        W92586  41.727  39.209  52.436
  663W        W92587  11.281  28.237  53.788
  664W        W92588   7.280  13.262  51.962
  665W        W92589   3.784   4.747  51.068
  666W        W92590  45.709  33.211  52.899
  667W        W92591  18.746  24.740  50.595
  668W        W92592  18.241  43.206  52.904
  669W        W92593   2.273  22.752  51.948
  670W        W92594  29.231  43.197  53.354
  671W        W92595   9.778  41.207  53.780
  672W        W92596  25.222   6.280  53.798
  673W        W92597  43.185  22.253  51.516
  674W        W92598  28.216  45.722  51.507
  675W        W92599  22.248  43.193  51.523
  676W        W92600  22.230  28.724  53.786
  677W        W92601  43.194  26.713  51.950
  678W        W92602  11.243   7.281  52.408
  679W        W92603  48.200  43.201  53.322
  680W        W92604  25.237  35.206  50.577
  681W        W92605   0.777  34.207  53.330
  682W        W92606  45.713  13.270  52.893
  683W        W92607  36.734  23.754  50.604
  684W        W92608  24.244  20.739  53.349
  685W        W92609  46.715  24.723  51.503
  686W        W92610  41.709  28.212  50.579
  687W        W92611  33.744  44.220  50.123
  688W        W92612  47.704   4.775  50.603
  689W        W92613  25.727  46.184  51.978
  690W        W92614   1.766   3.788  52.433
  691W        W92615  40.696   7.763  52.436
  692W        W92616   3.261  31.232  51.038
  693W        W92617  25.720  16.226  51.055
  694W        W92618  26.754  11.777  52.434
  695W        W92619   6.254  39.725  51.506
  696W        W92620  18.227  29.708  52.864
  697W        W92621  40.198  33.728  53.808
  698W        W92622  20.717  31.240  50.614
  699W        W92623  10.277  46.673  52.441
  700W        W92624  33.212  22.731  52.875
  701W        W92625  47.193  40.186  53.797
  702W        W92626  40.732  17.250  52.873
  703W        W92627  35.226  31.737  50.581
  704W        W92628  48.190  17.721  53.336
  705W        W92629  37.689  41.695  51.041
  706W        W92630  40.686   4.792  52.438
  707W        W92631  31.718  26.735  53.799
  708W        W92632  22.761   1.771  53.339
  709W        W92633  26.733  16.728  50.126
  710W        W92634   5.786  39.187  51.505
  711W        W92635  17.732  35.198  53.326
  712W        W92636  21.721  36.229  50.609
  713W        W92637   1.792  12.766  51.493
  714W        W92638  10.777  36.223  52.902
  715W        W92639  14.760   6.762  51.050
  716W        W92640   5.287  30.705  51.523
  717W        W92641  43.681   4.785  53.338
  718W        W92642   9.241   9.258  50.156
  719W        W92643  31.219  25.725  51.974
  720W        W92644   9.281  24.718  50.152
  721W        W92645  41.207  22.742  51.069
  722W        W92646  22.750   9.737  53.788
  723W        W92647  15.736   9.740  50.156
  724W        W92648   4.267  13.749  50.130
  725W        W92649   7.785   8.761  49.694
  726W        W92650  31.710  41.716  53.791
  727W        W92651  13.249  19.742  52.900
  728W        W92652  33.200  28.721  51.508
  729W        W92653  11.259  32.726  51.512
  730W        W92654  10.240  12.760  51.502
  731W        W92655  47.218  18.246  49.700
  732W        W92656  41.710  40.711  51.517
  733W        W92657  36.192  15.749  51.054
  734W        W92658  18.756  15.747  49.670
  735W        W92659  16.771  43.199  51.521
  736W        W92660  32.205  39.691  51.490
  737W        W92661   6.757  10.754  50.586
  738W        W92662  42.700  42.707  52.901
  739W        W92663  19.720  20.230  52.890
  740W        W92664  33.744  19.252  50.590
  741W        W92665  37.700  30.744  49.669
  742W        W92666  32.239  46.686  49.670
  743W        W92667  13.753  31.730  52.881
  744W        W92668  30.742  23.746  50.608
  745W        W92669   0.297  43.222  52.885
  746W        W92670  11.761  13.241  51.525
  747W        W92671  24.238   4.759  51.500
  748W        W92672  37.198  26.734  53.351
  749W        W92673  33.738  15.737  49.684
  750W        W92674  37.703   4.788  49.691
  751W        W92675  35.227  14.256  49.673
  752W        W92676  35.693  44.691  49.672
  753W        W92677  13.254   5.784  51.974
  754W        W92678   0.792  43.726  51.037
  755W        W92679  19.734  45.710  51.047
  756W        W92680  18.762  32.226  49.682
  757W        W92681  25.231  31.216  50.603
  758W        W92682  15.232  13.763  53.798
  759W        W92683  32.204  13.236  51.079
  760W        W92684   9.246  17.731  49.667
  761W        W92685  10.758  22.725  50.165
  762W        W92686   4.269  20.226  53.792
  763W        W92687  42.217   2.782  51.532
  764W        W92688  47.194  27.232  52.887
  765W        W92689  45.709  39.221  53.346
  766W        W92690  17.760   5.755  51.526
  767W        W92691  45.701  14.268  53.319
  768W        W92692  37.223  48.211  51.495
  769W        W92693  38.726  39.715  53.318
  770W        W92694  24.251  35.196  50.135
  771W        W92695  22.739   1.273  50.603
  772W        W92696   2.751  14.755  50.582
  773W        W92697  11.741  21.714  52.880
  774W        W92698  48.184  17.236  51.968
  775W        W92699  20.222  38.690  53.783
  776W        W92700  10.261   3.271  52.889
  777W        W92701  33.738   0.783  51.049
  778W        W92702  43.184  40.733  52.890
  779W        W92703   4.254  20.754  51.974
  780W        W92704  45.210   8.237  51.982
  781W        W92705  10.747  19.738  52.874
  782W        W92706   8.751  12.257  52.895
  783W        W92707  41.194   6.281  50.161
  784W        W92708  41.681  30.226  51.535
  785W        W92709  41.211  28.252  53.323
  786W        W92710  31.202   6.751  49.678
  787W        W92711  12.268  16.273  50.158
  788W        W92712  29.245  38.222  53.794
  789W        W92713  44.184  48.202  50.596
  790W        W92714   9.734  14.775  50.160
  791W        W92715   7.747  27.229  50.593
  792W        W92716   2.787  37.197  53.352
  793W        W92717  38.731  27.750  49.703
  794W        W92718  26.233  39.190  51.068
  795W        W92719   2.250   0.252  51.047
  796W        W92720  18.764  39.721  49.675
  797W        W92721  33.703  23.243  52.410
  798W        W92722  42.682  33.697  53.813
  799W        W92723  37.204  18.250  53.790
  800W        W92724  23.742  10.242  51.498
  801W        W92725  42.230   6.242  50.605
  802W        W92726  17.724  46.213  51.985
  803W        W92727   1.755  35.205  51.060
  804W        W92728  14.264   0.262  53.787
  805W        W92729  11.254  34.215  52.441
  806W        W92730  24.232   0.292  50.591
  807W        W92731  22.759  21.233  51.062
  808W        W92732   3.284  30.226  50.587
  809W        W92733  13.240  20.755  52.419
  810W        W92734   0.270  24.721  50.164
  811W        W92735  34.714  20.732  51.951
  812W        W92736  31.232  17.741  51.975
  813W        W92737  45.700  31.729  51.051
  814W        W92738  39.197  14.738  51.951
  815W        W92739  30.244  36.729  52.877
  816W        W92740  19.223  24.735  53.775
  817W        W92741  38.233   2.786  52.869
  818W        W92742  27.706  19.219  51.525
  819W        W92743  36.719   6.743  52.893
  820W        W92744   0.764  33.216  53.792
  821W        W92745   6.284  23.720  50.130
  822W        W92746  29.714  27.243  52.871
  823W        W92747  36.236   5.262  51.498
  824W        W92748  28.737  26.727  51.078
  825W        W92749  11.239  46.222  49.695
  826W        W92750  32.718   9.739  50.614
  827W        W92751   7.758   7.785  49.680
  828W        W92752  20.737  14.751  51.050
  829W        W92753  29.210   2.770  52.892
  830W        W92754  18.724  30.227  52.890
  831W        W92755  26.708  18.270  50.620
  832W        W92756  18.729  20.234  49.697
  833W        W92757  12.731  37.704  51.052
  834W        W92758  42.214  43.681  52.423
  835W        W92759  13.743   4.286  52.899
  836W        W92760  21.248  37.713  53.817
  837W        W92761  11.776   1.274  51.056
  838W        W92762  47.721  10.235  52.414
  839W        W92763   8.283  24.244  51.497
  840W        W92764  12.770  27.217  49.673
  841W        W92765  27.226  14.262  51.952
  842W        W92766  32.229  11.749  52.448
  843W        W92767  25.713   2.788  52.412
  844W        W92768  21.730  42.206  49.703
  845W        W92769  21.725  35.734  50.133
  846W        W92770  35.230   1.268  52.442
  847W        W92771   5.265  12.267  53.812
  848W        W92772  26.728  19.234  51.983
  849W        W92773   2.757  14.254  51.066
  850W        W92774  31.719   9.253  52.430
  851W        W92775   6.258  17.755  51.068
  852W        W92776  26.217   9.259  51.058
  853W        W92777   7.244  38.725  52.900
  854W        W92778  23.231   6.280  53.356
  855W        W92779  13.231   7.279  51.491
  856W        W92780  46.206  19.733  51.497
  857W        W92781  14.748  24.738  51.077
  858W        W92782  27.216  33.202  51.056
  859W        W92783   0.750  31.725  49.701
  860W        W92784  45.177  27.237  52.420
  861W        W92785   7.254  25.754  53.803
  862W        W92786  42.690   9.754  51.064
  863W        W92787  41.183   8.265  52.863
  864W        W92788  47.180  24.245  52.877
  865W        W92789  39.234  22.251  51.986
  866W        W92790  34.694  33.233  49.693
  867W        W92791  22.219   1.778  51.053
  868W        W92792  14.763  15.739  51.075
  869W        W92793  29.204  33.743  51.055
  870W        W92794   1.290  45.710  53.805
  871W        W92795  14.764  45.694  50.128
  872W        W92796  45.220  10.272  50.616
  873W        W92797  38.194  41.226  50.609
  874W        W92798   5.254  31.734  51.054
  875W        W92799  29.739  36.226  51.508
  876W        W92800  46.203  36.737  53.356
  877W        W92801  40.228  29.211  51.079
  878W        W92802  10.251  21.761  51.053
  879W        W92803   9.783  46.218  51.517
  880W        W92804  15.273  36.728  50.585
  881W        W92805   4.259  33.236  51.050
  882W        W92806  32.735  17.244  49.705
  883W        W92807  34.735  32.198  53.319
  884W        W92808  16.244  36.198  50.142
  885W        W92809  27.213  15.757  52.876
  886W        W92810   2.755  28.717  50.617
  887W        W92811   7.778  16.738  51.506
  888W        W92812  47.202  17.265  49.692
  889W        W92813  47.210   3.752  49.688
  890W        W92814  16.738  11.770  50.614
  891W        W92815  22.723   7.776  53.780
  892W        W92816  26.223  16.244  50.589
  893W        W92817  25.735   7.756  50.613
  894W        W92818  23.758  15.270  51.952
  895W        W92819  36.698  44.681  50.620
  896W        W92820  25.755  36.231  52.447
  897W        W92821  24.221  42.714  50.122
  898W        W92822  28.715  18.750  49.688
  899W        W92823  10.773  16.228  51.983
  900W        W92824  29.750  35.740  50.621
  901W        W92825  18.722  34.241  51.970
  902W        W92826  42.218  37.729  53.352
  903W        W92827   7.242   4.762  53.814
  904W        W92828   8.754   3.269  51.956
  905W        W92829  45.687  23.230  50.140
  906W        W92830  13.252  40.692  51.071
  907W        W92831  38.705  15.740  51.523
  908W        W92832  44.209  26.722  51.494
  909W        W92833  36.203  28.211  50.127
  910W        W92834  25.244  21.728  50.599
  911W        W92835  23.252  26.720  50.611
  912W        W92836  15.770  19.231  53.355
  913W        W92837   2.250  17.243  53.328
  914W        W92838   0.285  22.247  52.896
  915W        W92839  47.208   1.269  52.870
  916W        W92840  31.716  46.198  49.706
  917W        W92841  15.246  45.701  51.054
  918W        W92842  41.718   3.761  50.124
  919W        W92843  44.702  44.692  52.885
  920W        W92844  15.730  25.209  52.885
  921W        W92845  45.721  46.715  52.428
  922W        W92846  35.212  40.214  53.794
  923W        W92847  23.228  32.718  53.348
  924W        W92848  11.267  18.743  50.152
  925W        W92849  36.721   4.290  51.071
  926W        W92850  32.225  41.183  51.036
  927W        W92851   6.242   6.273  49.675
  928W        W92852  29.719  23.233  52.890
  929W        W92853  31.739  22.227  53.809
  930W        W92854  31.713  21.242  51.516
  931W        W92855  25.231  29.722  50.144
  932W        W92856  14.748  28.719  51.060
  933W        W92857  44.195  35.713  51.966
  934W        W92858  42.217   0.289  50.620
  935W        W92859  40.705  46.175  51.498
  936W        W92860  35.739  17.255  51.061
  937W        W92861  26.220  21.243  51.970
  938W        W92862  45.202  26.238  53.794
  939W        W92863  30.710  11.739  52.424
  940W        W92864  27.217  21.262  51.066
  941W        W92865  41.711  12.768  52.420
  942W        W92866   2.794   4.267  53.781
  943W        W92867  38.710  11.747  51.519
  944W        W92868  11.251   9.748  53.354
  945W        W92869  17.753   5.266  52.444
  946W        W92870  45.699  43.219  52.896
  947W        W92871  18.259  31.201  51.075
  948W        W92872  14.261   3.750  50.601
  949W        W92873   4.772  39.221  51.517
  950W        W92874  20.226  16.743  50.128
  951W        W92875  13.747  31.204  49.664
  952W        W92876  27.248   2.248  52.883
  953W        W92877  34.739  35.222  50.598
  954W        W92878  26.738  27.721  53.796
  955W        W92879  17.265  18.727  50.579
  956W        W92880   2.266  44.722  50.154
  957W        W92881  35.726  39.230  49.691
  958W        W92882   7.739   6.247  52.900
  959W        W92883  33.239  46.198  49.695
  960W        W92884  22.245  37.692  52.406
  961W        W92885  20.718  10.762  52.436
  962W        W92886  41.711  39.729  52.902
  963W        W92887  19.224  28.219  52.409
  964W        W92888  45.187  25.234  52.864
  965W        W92889  10.747   1.275  52.902
  966W        W92890  28.250   1.270  52.444
  967W        W92891  13.260  14.276  51.968
  968W        W92892  27.709  10.236  52.412
  969W        W92893  46.706  26.710  51.071
  970W        W92894   9.266  37.206  50.615
  971W        W92895  11.777  28.751  50.582
  972W        W92896  26.209  38.197  51.989
  973W        W92897  13.746   5.263  53.810
  974W        W92898   4.282  46.710  52.870
  975W        W92899  42.698   9.755  50.123
  976W        W92900   8.745  30.220  50.131
  977W        W92901  23.234  18.250  53.796
  978W        W92902  28.249  46.699  51.044
  979W        W92903  23.220  39.685  50.585
  980W        W92904  27.721  43.701  50.166
  981W        W92905   8.255  26.226  52.412
  982W        W92906  21.227  11.268  49.668
  983W        W92907  27.252   4.286  51.516
  984W        W92908  36.193  45.695  52.420
  985W        W92909  27.231   3.255  49.702
  986W        W92910  31.202  37.221  51.048
  987W        W92911  15.750  35.232  50.616
  988W        W92912   4.258  31.241  53.318
  989W        W92913  27.231  45.176  52.432
  990W        W92914   0.774  13.229  51.976
  991W        W92915   0.260   6.251  50.616
  992W        W92916  17.264  41.728  51.970
  993W        W92917  35.722  31.219  51.515
  994W        W92918  40.215  34.714  51.982
  995W        W92919  23.733   0.788  52.895
  996W        W92920  21.741  22.254  52.868
  997W        W92921   9.236  40.220  50.154
  998W        W92922   1.269   5.265  51.493
  999W        W92923  13.241  44.686  53.323
 1000W        W92924  31.223  25.236  50.123
 1001W        W92925  39.215  38.695  53.317
 1002W        W92926  40.719  39.704  50.610
 1003W        W92927  19.734   1.772  51.496
 1004W        W92928  42.218  30.222  51.499
 1005W        W92929  42.193   9.754  52.428
 1006W        W92930  20.731  42.691  53.357
 1007W        W92931  44.700   0.280  50.128
 1008W        W92932   7.768   7.275  52.878
 1009W        W92933  20.246   8.283  50.125
 1010W        W92934  45.721  17.243  52.881
 1011W        W92935  15.754  13.758  50.621
 1012W        W92936  42.692  47.708  49.674
 1013W        W92937   9.239  47.711  53.345
 1014W        W92938  47.179  30.714  53.326
 1015W        W92939  37.722  46.695  50.144
 1016W        W92940   7.263   5.751  51.965
 1017W        W92941  30.243  26.724  51.514
 1018W        W92942  41.693  36.730  51.066
 1019W        W92943  39.693  23.758  50.580
 1020W        W92944   6.246  42.702  53.807
 1021W        W92945   8.251  27.748  52.872
 1022W        W92946  42.693  29.205  49.688
 1023W        W92947   2.775  43.700  52.406
 1024W        W92948  11.277  12.269  53.324
 1025W        W92949  11.267  24.258  51.056
 1026W        W92950  38.228   2.761  51.043
 1027W        W92951  45.713  41.214  53.783
 1028W        W92952   9.784  18.768  51.535
 1029W        W92953  23.213  22.249  50.154
 1030W        W92954  22.720  34.221  49.708
 1031W        W92955  45.702  11.274  49.680
 1032W        W92956  48.218  25.740  51.036
 1033W        W92957   1.271  33.730  49.702
 1034W        W92958   9.263  24.210  51.510
 1035W        W92959  18.760  47.673  53.323
 1036W        W92960  21.741   0.277  51.035
 1037W        W92961  38.229  33.197  50.153
 1038W        W92962  23.745  19.240  51.495
 1039W        W92963  37.709  37.736  49.699
 1040W        W92964  12.748  31.221  52.882
 1041W        W92965  23.253   1.762  50.166
 1042W        W92966  37.710  17.746  53.789
 1043W        W92967   8.765  22.246  53.778
 1044W        W92968  44.191  43.698  51.965
 1045W        W92969  45.194  43.712  50.133
 1046W        W92970   1.259   0.784  49.667
 1047W        W92971  14.774   1.754  53.344
 1048W        W92972   9.257  45.715  53.786
 1049W        W92973  39.716  41.207  51.512
 1050W        W92974   0.252  32.718  51.980
 1051W        W92975  14.768  12.276  52.886
 1052W        W92976   4.748   4.269  52.443
 1053W        W92977  43.698  10.766  52.888
 1054W        W92978  37.226  34.215  52.446
 1055W        W92979  40.189  40.229  52.422
 1056W        W92980  26.208  18.735  51.953
 1057W        W92981  13.732  48.190  51.966
 1058W        W92982   4.248  10.236  50.606
 1059W        W92983  12.769  14.775  53.345
 1060W        W92984  15.235  40.711  51.500
 1061W        W92985  41.221  38.703  51.966
 1062W        W92986  10.735  11.247  51.953
 1063W        W92987  16.736  16.769  50.601
 1064W        W92988  34.711  24.712  53.810
 1065W        W92989  38.691  29.218  51.522
 1066W        W92990  27.721   9.774  50.614
 1067W        W92991  36.703  17.230  53.339
 1068W        W92992  37.234  22.248  50.604
 1069W        W92993   3.784  27.234  51.067
 1070W        W92994   6.250   9.761  53.816
 1071W        W92995   0.778  33.227  51.520
 1072W        W92996  12.731   4.258  53.796
 1073W        W92997  39.208  46.711  50.150
 1074W        W92998  48.208  16.742  52.863
 1075W        W92999  39.198   4.776  52.883
 1076W        W93000  47.204  43.722  51.960
 1077W        W93001  15.246  16.268  52.405
 1078W        W93002  46.198   5.274  49.680
 1079W        W93003  21.749  13.768  53.318
 1080W        W93004  16.752  10.260  53.779
 1081W        W93005  21.738  38.236  52.439
 1082W        W93006  11.746  16.759  53.772
 1083W        W93007  36.736  24.258  49.697
 1084W        W93008   1.272  47.203  52.438
 1085W        W93009  12.257   2.282  50.137
 1086W        W93010  36.234  31.717  53.360
 1087W        W93011  29.733  32.233  50.126
 1088W        W93012  38.730  10.770  50.595
 1089W        W93013  13.239  24.211  50.163
 1090W        W93014  22.722  22.254  53.801
 1091W        W93015  34.723  18.737  50.617
 1092W        W93016  20.747   9.237  51.524
 1093W        W93017  23.716  23.244  50.151
 1094W        W93018  43.210  23.743  52.445
 1095W        W93019  33.205  23.229  53.793
 1096W        W93020  42.215  36.705  50.140
 1097W        W93021  17.738  14.756  51.956
 1098W        W93022  41.715  34.203  53.316
 1099W        W93023  20.252  22.719  51.989
 1100W        W93024  34.708   2.261  53.336
 1101W        W93025  20.232  10.251  50.155
 1102W        W93026  36.217  11.771  50.587
 1103W        W93027   6.765  29.229  51.049
 1104W        W93028   1.272   2.289  52.436
 1105W        W93029  25.730   9.256  51.987
 1106W        W93030  22.231  13.741  51.532
 1107W        W93031  30.726  15.762  49.707
 1108W        W93032  16.738  14.257  51.973
 1109W        W93033   3.761   3.294  53.788
 1110W        W93034  23.716  37.212  53.811
 1111W        W93035  37.705  22.723  52.875
 1112W        W93036  39.224  19.268  51.508
 1113W        W93037  33.196  41.706  51.500
 1114W        W93038  22.730   6.283  51.533
 1115W        W93039  16.735   0.788  51.963
 1116W        W93040   8.764  35.730  52.879
 1117W        W93041  37.234  43.216  51.967
 1118W        W93042  19.748  13.239  50.613
 1119W        W93043  42.721   4.770  50.594
 1120W        W93044  15.769  34.240  53.349
 1121W        W93045  17.739  25.757  49.664
 1122W        W93046  21.748  44.679  52.883
 1123W        W93047  47.707  28.226  50.594
 1124W        W93048  39.232  15.253  50.622
 1125W        W93049  45.701  25.715  49.710
 1126W        W93050  20.746  29.246  52.882
 1127W        W93051  22.730  26.220  53.809
 1128W        W93052  25.750  13.250  53.355
 1129W        W93053  38.725  16.262  52.898
 1130W        W93054  33.736   9.255  51.523
 1131W        W93055  26.222   7.765  51.067
 1132W        W93056  25.239   7.775  52.888
 1133W        W93057  30.709   1.793  51.055
 1134W        W93058  21.753  19.750  49.673
 1135W        W93059  10.247  45.209  53.792
 1136W        W93060  17.767  16.243  53.337
 1137W        W93061  13.763  37.189  50.590
 1138W        W93062  46.704   6.260  51.053
 1139W        W93063   2.759   6.740  53.797
 1140W        W93064   3.283   6.277  51.532
 1141W        W93065  12.764  26.243  50.124
 1142W        W93066  40.220  42.192  53.793
 1143W        W93067  34.229  20.732  51.510
 1144W        W93068  43.726  28.208  52.903
 1145W        W93069  32.726  20.733  53.342
 1146W        W93070  12.777  23.251  50.587
 1147W        W93071  17.252  43.683  51.950
 1148W        W93072  22.757  25.238  51.059
 1149W        W93073   1.294   3.783  50.619
 1150W        W93074  36.735  19.720  51.055
 1151W        W93075  47.205   0.779  50.128
 1152W        W93076  27.242   4.290  49.706
 1153W        W93077  45.194  22.255  49.694
 1154W        W93078  35.693  34.696  50.605
 1155W        W93079   6.263  14.248  50.147
 1156W        W93080  16.250  38.697  51.963
 1157W        W93081  44.192  39.193  51.076
 1158W        W93082  40.195  17.241  50.162
 1159W        W93083  24.748  23.712  51.047
 1160W        W93084  40.719   2.778  50.600
 1161W        W93085  36.695  23.244  50.157
 1162W        W93086  11.273   2.290  50.608
 1163W        W93087  23.717  47.181  53.813
 1164W        W93088  42.189   3.284  51.058
 1165W        W93089  12.755  42.710  50.589
 1166W        W93090  36.700  20.260  52.431
 1167W        W93091  12.236  41.201  51.966
 1168W        W93092  35.230  39.208  52.439
 1169W        W93093   0.291  46.702  52.419
 1170W        W93094  27.249  30.701  50.126
 1171W        W93095  19.729  19.251  50.592
 1172W        W93096  44.178   6.247  53.359
 1173W        W93097   8.266  28.242  52.887
 1174W        W93098   4.789  33.735  51.975
 1175W        W93099  40.707  27.233  49.680
 1176W        W93100   7.778  29.716  53.785
 1177W        W93101   7.757  26.232  52.887
 1178W        W93102  32.718  39.188  53.325
 1179W        W93103  44.208   2.294  51.963
 1180W        W93104  37.206   0.276  50.153
 1181W        W93105  13.256   8.285  51.519
 1182W        W93106  38.211   9.246  51.978
 1183W        W93107  16.255  26.226  52.878
 1184W        W93108   3.780  39.729  50.149
 1185W        W93109  46.707   2.274  51.049
 1186W        W93110   5.289  43.681  51.988
 1187W        W93111  47.685  25.739  53.349
 1188W        W93112  36.229   2.760  53.784
 1189W        W93113  25.738   9.262  53.777
 1190W        W93114  43.188  41.195  51.048
 1191W        W93115  25.712  47.682  51.511
 1192W        W93116  15.770   7.739  51.973
 1193W        W93117  11.751   4.785  53.355
 1194W        W93118   9.735  32.224  50.157
 1195W        W93119  29.715  13.769  53.333
 1196W        W93120  33.204  29.240  53.813
 1197W        W93121  16.252   7.268  52.895
 1198W        W93122  35.216  35.223  51.037
 1199W        W93123  21.758  34.739  53.333
 1200W        W93124  24.220  31.707  52.446
 1201W        W93125  27.228  31.207  49.693
 1202W        W93126   6.285  26.752  50.620
 1203W        W93127  19.727  23.218  50.588
 1204W        W93128  22.715  18.732  53.347
 1205W        W93129  26.756  17.229  51.497
 1206W        W93130  16.749  17.722  50.583
 1207W        W93131   7.748  35.233  53.781
 1208W        W93132  13.751  33.202  53.344
 1209W        W93133  26.212  13.762  49.695
 1210W        W93134   4.765  35.227  51.986
 1211W        W93135  12.746   7.770  51.046
 1212W        W93136  24.229   5.756  50.155
 1213W        W93137  30.738   4.292  50.133
 1214W        W93138  29.207   1.770  50.582
 1215W        W93139   7.245  29.723  51.532
 1216W        W93140  46.209   9.271  51.973
 1217W        W93141  23.712  42.713  52.876
 1218W        W93142  33.240  21.263  51.048
 1219W        W93143  47.187   8.747  52.902
 1220W        W93144  25.235  45.209  50.166
 1221W        W93145  33.225  17.239  51.975
 1222W        W93146  10.766  12.731  53.816
 1223W        W93147  32.243  10.753  51.531
 1224W        W93148  15.239  23.243  49.694
 1225W        W93149  18.255   3.766  51.052
 1226W        W93150  15.755  42.221  49.694
 1227W        W93151  14.744  26.752  49.673
 1228W        W93152  42.221  22.214  50.152
 1229W        W93153  40.231  20.217  52.435
 1230W        W93154  10.275  28.210  52.423
 1231W        W93155  40.229  16.759  51.981
 1232W        W93156  18.226   8.766  52.421
 1233W        W93157   4.260  38.724  51.041
 1234W        W93158  47.174  17.724  53.777
 1235W        W93159  42.685  41.724  52.861
 1236W        W93160  10.754  36.235  51.079
 1237W        W93161  22.232  35.236  50.620
 1238W        W93162  32.740   1.260  52.873
 1239W        W93163  41.224   6.243  50.588
 1240W        W93164   5.242  21.756  52.900
 1241W        W93165  24.758  11.767  52.439
 1242W        W93166  11.273  44.709  51.049
 1243W        W93167   1.276  17.764  52.873
 1244W        W93168  32.200  41.221  52.894
 1245W        W93169  47.194   1.251  51.517
 1246W        W93170  23.231  17.736  51.954
 1247W        W93171  37.214  42.718  53.810
 1248W        W93172  33.210  12.245  52.432
 1249W        W93173  20.725  44.189  51.978
 1250W        W93174  41.727  32.214  50.158
 1251W        W93175  31.225  10.781  51.067
 1252W        W93176  28.210   2.757  53.816
 1253W        W93177  26.243  30.233  51.515
 1254W        W93178  22.745  26.738  50.599
 1255W        W93179  17.729   4.262  53.351
 1256W        W93180   6.775  42.182  52.860
 1257W        W93181  12.236  16.731  49.695
 1258W        W93182  31.724   6.262  53.783
 1259W        W93183  29.245  39.715  51.045
 1260W        W93184  46.706  26.252  52.428
 1261W        W93185  27.729  33.723  53.808
 1262W        W93186  44.213  31.216  52.432
 1263W        W93187  47.696  44.686  51.517
 1264W        W93188  43.697   9.281  51.075
 1265W        W93189  37.219  18.229  51.524
 1266W        W93190  19.744  35.710  52.886
 1267W        W93191  35.217  41.706  53.799
 1268W        W93192  42.700  23.735  53.343
 1269W        W93193  22.246  43.681  50.132
 1270W        W93194   4.780  30.227  50.582
 1271W        W93195   7.244  16.257  50.587
 1272W        W93196  43.694  47.677  51.512
 1273W        W93197  39.225   9.778  52.872
 1274W        W93198  24.241  17.237  51.078
 1275W        W93199  31.739  16.728  49.683
 1276W        W93200  14.231  24.235  52.409
 1277W        W93201  16.732  44.706  52.893
 1278W        W93202  16.768   6.768  51.498
 1279W        W93203   6.275   8.246  50.125
 1280W        W93204  16.231   4.760  51.074
 1281W        W93205  34.214  29.236  51.074
 1282W        W93206  18.739  44.681  52.444
 1283W        W93207  40.224  47.197  51.956
 1284W        W93208   4.264   2.772  52.881
 1285W        W93209  41.720  20.732  52.878
 1286W        W93210  12.753  16.732  50.597
 1287W        W93211   7.277  47.699  53.807
 1288W        W93212  22.732  44.682  53.320
 1289W        W93213   8.285  40.699  50.162
 1290W        W93214  44.197   8.783  53.799
 1291W        W93215  30.248   2.289  50.157
 1292W        W93216  47.196  37.220  53.319
 1293W        W93217  39.699  21.747  53.329
 1294W        W93218  22.227  17.761  53.326
 1295W        W93219  39.688  24.232  53.336
 1296W        W93220  31.745   9.775  51.509
 1297W        W93221   9.734  45.697  50.613
 1298W        W93222  19.228  21.246  51.511
 1299W        W93223  36.723   9.750  51.055
 1300W        W93224  45.222  37.208  50.138
 1301W        W93225  34.200  19.746  52.404
 1302W        W93226  26.724  38.697  49.673
 1303W        W93227  30.233  18.747  50.582
 1304W        W93228   1.786  46.223  51.053
 1305W        W93229  20.734  41.692  50.604
 1306W        W93230  42.225  21.741  52.903
 1307W        W93231   1.251   7.287  51.075
 1308W        W93232  22.717  18.757  51.057
 1309W        W93233  31.709  47.186  49.668
 1310W        W93234  22.228  10.277  52.885
 1311W        W93235  10.750  12.760  50.146
 1312W        W93236  17.769  38.710  53.347
 1313W        W93237  16.270  38.208  52.440
 1314W        W93238  40.187  21.736  51.037
 1315W        W93239  16.731  13.745  51.983
 1316W        W93240  37.236   6.265  51.048
 1317W        W93241  44.693   6.256  49.697
 1318W        W93242  14.229  46.196  50.619
 1319W        W93243  32.738  33.699  50.164
 1320W        W93244  44.223  29.731  52.894
 1321W        W93245  44.719  17.770  49.707
 1322W        W93246  45.221  46.202  51.964
 1323W        W93247  27.229  24.228  49.705
 1324W        W93248  47.711  32.730  52.869
 1325W        W93249  16.750  26.750  52.884
 1326W        W93250   3.778  12.772  51.050
 1327W        W93251  20.234  14.758  49.678
 1328W        W93252  23.760  13.768  50.151
 1329W        W93253  11.277  35.208  51.492
 1330W        W93254  42.729  14.752  53.804
 1331W        W93255  40.204  35.713  51.064
 1332W        W93256   1.248  29.720  50.159
 1333W        W93257  12.267  18.763  52.435
 1334W        W93258   0.293  15.233  50.600
 1335W        W93259  30.701   3.277  53.811
 1336W        W93260  28.252  36.718  51.525
 1337W        W93261  23.238  46.181  50.579
 1338W        W93262   6.288  35.207  50.615
 1339W        W93263   6.770  24.714  53.330
 1340W        W93264  37.702  22.714  51.036
 1341W        W93265  28.729  47.692  52.440
 1342W        W93266   9.269  48.218  50.125
 1343W        W93267   8.260  45.200  51.522
 1344W        W93268  23.737  14.262  50.579
 1345W        W93269  26.218  13.275  51.054
 1346W        W93270  44.693  36.210  52.898
 1347W        W93271  10.271  18.758  52.880
 1348W        W93272  17.725  31.738  53.344
 1349W        W93273  38.208  45.189  52.895
 1350W        W93274  10.753  36.236  50.121
 1351W        W93275  41.717  22.715  52.415
 1352W        W93276  16.754  20.252  52.871
 1353W        W93277   5.285   0.793  51.049
 1354W        W93278  37.733  38.212  51.060
 1355W        W93279  11.745  44.679  52.862
 1356W        W93280  30.210   8.279  52.903
 1357W        W93281  37.710   9.755  50.122
 1358W        W93282   6.765  33.709  53.356
 1359W        W93283  19.244  14.766  51.533
 1360W        W93284  41.220  25.229  52.904
 1361W        W93285  40.695   6.782  51.069
 1362W        W93286  44.719   0.758  51.051
 1363W        W93287  11.747  17.759  50.147
 1364W        W93288   1.276  34.226  49.687
 1365W        W93289  35.716  34.226  51.531
 1366W        W93290  21.220  13.759  53.349
 1367W        W93291   5.257  13.267  52.414
 1368W        W93292  19.730  12.279  51.063
 1369W        W93293  20.763  12.236  50.135
 1370W        W93294  37.711  26.715  52.429
 1371W        W93295   7.270  19.732  49.677
 1372W        W93296  44.193  10.769  51.968
 1373W        W93297  30.218  44.709  51.042
 1374W        W93298   0.252  21.762  49.696
 1375W        W93299  19.223  32.716  50.622
 1376W        W93300   9.768  18.743  50.143
 1377W        W93301  17.750  15.255  52.886
 1378W        W93302  45.210  11.773  49.692
 1379W        W93303  37.717  37.236  50.594
 1380W        W93304   5.785  19.767  50.600
 1381W        W93305   7.259  20.741  51.494
 1382W        W93306   6.281  22.248  51.064
 1383W        W93307  26.215  25.212  50.141
 1384W        W93308  16.766  18.256  50.620
 1385W        W93309  25.256  18.234  50.578
 1386W        W93310  42.213  31.246  49.684
 1387W        W93311  12.773  38.723  51.058
 1388W        W93312  38.687  35.696  51.515
 1389W        W93313   6.754  48.198  50.147
 1390W        W93314  35.221  43.185  53.790
 1391W        W93315  36.719  10.266  50.144
 1392W        W93316  28.723  47.180  52.896
 1393W        W93317  33.218  47.208  52.879
 1394W        W93318  47.711  20.226  49.677
 1395W        W93319  30.244   9.764  51.963
 1396W        W93320   4.752  35.206  52.438
 1397W        W93321   1.287  17.257  51.982
 1398W        W93322  10.243  18.244  51.985
 1399W        W93323  23.220  20.725  49.671
 1400W        W93324  31.243  42.229  52.904
 1401W        W93325  46.686  17.761  51.977
 1402W        W93326  27.253  28.216  52.420
 1403W        W93327   8.779  18.232  51.058
 1404W        W93328  19.237  46.193  52.430
 1405W        W93329  26.738   4.251  49.695
 1406W        W93330   5.749   5.277  53.331
 1407W        W93331  19.757  15.763  53.352
 1408W        W93332  35.713  17.247  52.900
 1409W        W93333   9.754  47.189  51.958
 1410W        W93334  32.723  11.261  51.050
 1411W        W93335  19.750  42.214  51.049
 1412W        W93336  43.207  30.731  51.507
 1413W        W93337   5.285  42.683  52.887
 1414W        W93338  27.224   3.779  52.867
 1415W        W93339  23.739  38.729  50.126
 1416W        W93340   8.274  25.720  50.150
 1417W        W93341   7.248  39.730  50.148
 1418W        W93342  17.232  13.232  50.589
 1419W        W93343   3.779  48.213  51.512
 1420W        W93344  37.222  31.203  50.608
 1421W        W93345  16.226  43.197  51.975
 1422W        W93346  36.708  48.200  50.612
 1423W        W93347   4.285   8.241  51.949
 1424W        W93348  45.683   9.262  52.864
 1425W        W93349   5.255  40.692  53.803
 1426W        W93350  27.747  16.266  49.679
 1427W        W93351  16.765  36.718  51.516
 1428W        W93352  34.742   0.260  51.493
 1429W        W93353  22.256  37.731  51.068
 1430W        W93354  14.761  10.733  51.065
 1431W        W93355  27.705  16.237  52.412
 1432W        W93356  18.256  13.728  51.976
 1433W        W93357  29.722  47.221  51.070
 1434W        W93358  12.738  10.252  51.509
 1435W        W93359   5.282  42.188  51.963
 1436W        W93360   2.783  20.223  49.696
 1437W        W93361  41.724  41.706  53.780
 1438W        W93362  40.731  24.724  51.534
 1439W        W93363  16.238  31.245  52.863
 1440W        W93364  26.740  15.261  53.795
 1441W        W93365  10.753   9.757  53.805
 1442W        W93366  42.719  28.737  50.164
 1443W        W93367  30.231  16.731  51.506
 1444W        W93368  15.225  45.181  52.445
 1445W        W93369  39.231  44.705  53.349
 1446W        W93370   0.775  12.754  52.426
 1447W        W93371   6.242  28.735  49.668
 1448W        W93372  31.722   7.770  52.890
 1449W        W93373  43.203  39.704  51.954
 1450W        W93374   3.758  36.738  52.900
 1451W        W93375  17.742  37.233  53.329
 1452W        W93376  46.711  21.234  49.669
 1453W        W93377  45.686  44.197  51.045
 1454W        W93378   9.251  27.214  51.518
 1455W        W93379  16.227  42.692  52.882
 1456W        W93380  19.728   7.250  50.156
 1457W        W93381   9.266  42.696  50.614
 1458W        W93382   9.742  19.739  53.334
 1459W        W93383  31.711  17.255  52.869
 1460W        W93384  12.271   5.762  51.036
 1461W        W93385  22.760  39.208  51.518
 1462W        W93386  32.737  14.270  51.041
 1463W        W93387  22.743  11.280  52.887
 1464W        W93388  45.205  26.707  53.350
 1465W        W93389  27.210  28.744  49.672
 1466W        W93390  40.191  41.220  51.076
 1467W        W93391  38.715  10.237  51.521
 1468W        W93392  39.733  31.708  53.791
 1469W        W93393  43.206  13.735  50.592
 1470W        W93394  46.183  21.745  52.435
 1471W        W93395   3.775  13.243  53.353
 1472W        W93396  24.747  26.718  49.670
 1473W        W93397  38.724   7.277  53.802
 1474W        W93398   2.296  32.202  53.800
 1475W        W93399  40.714  25.235  52.411
 1476W        W93400  43.181   8.747  50.587
 1477W        W93401  39.211  33.229  53.339
 1478W        W93402  28.716  22.714  53.342
 1479W        W93403  43.211  41.214  51.958
 1480W        W93404  28.736  31.232  51.992
 1481W        W93405   6.273  25.720  52.439
 1482W        W93406   8.245  21.727  51.054
 1483W        W93407  25.714  25.251  53.782
 1484W        W93408  29.737  17.254  49.670
 1485W        W93409  34.722   9.755  53.320
 1486W        W93410  33.717  17.768  49.695
 1487W        W93411  30.214  10.274  50.145
 1488W        W93412   7.270  36.714  51.077
 1489W        W93413  36.695  11.765  49.684
 1490W        W93414  39.233   0.773  52.886
 1491W        W93415  16.247  24.249  51.991
 1492W        W93416   0.765   0.795  50.148
 1493W        W93417   0.299   9.780  52.878
 1494W        W93418  18.755   5.285  51.036
 1495W        W93419  31.747   2.756  49.667
 1496W        W93420   0.787  12.262  51.078
 1497W        W93421  14.235  40.729  52.865
 1498W        W93422  34.235  17.766  51.060
 1499W        W93423  29.210  23.726  50.600
 1500W        W93424  20.717  41.211  53.800
 1501W        W93425   3.777  21.264  53.335
 1502W        W93426  34.227  33.697  53.335
 1503W        W93427   5.288  13.734  49.686
 1504W        W93428  27.218  38.189  53.775
 1505W        W93429   5.770  10.273  49.682
 1506W        W93430  18.256  12.258  51.067
 1507W        W93431  16.248   3.765  51.963
 1508W        W93432  26.229  17.764  53.812
 1509W        W93433   6.760   8.769  49.708
 1510W        W93434   4.767  18.266  53.354
 1511W        W93435  13.762  22.754  49.705
 1512W        W93436   0.786  42.700  53.329
 1513W        W93437   6.276  14.734  53.792
 1514W        W93438  27.734  34.241  53.784
 1515W        W93439   9.744  20.758  52.861
 1516W        W93440  47.195  17.249  51.984
 1517W        W93441  33.706  22.221  51.053
 1518W        W93442  15.733  34.740  51.036
 1519W        W93443  24.257  18.264  53.334
 1520W        W93444   6.768  28.718  51.041
 1521W        W93445  17.271  48.171  53.323
 1522W        W93446  41.687  41.206  51.498
 1523W        W93447  33.701   8.247  50.166
 1524W        W93448  30.242  39.700  51.046
 1525W        W93449   6.282   8.773  51.523
 1526W        W93450  21.253  35.196  51.955
 1527W        W93451  22.753  21.255  52.406
 1528W        W93452  45.719  43.707  53.352
 1529W        W93453  12.740  43.697  52.434
 1530W        W93454  18.734  43.205  51.496
 1531W        W93455  14.749  48.204  50.592
 1532W        W93456  45.696   3.783  51.067
 1533W        W93457  15.228  10.233  50.153
 1534W        W93458  11.774  31.701  51.519
 1535W        W93459   9.251  32.700  50.148
 1536W        W93460  24.217   7.272  53.323
 1537W        W93461  14.741  34.734  50.607
 1538W        W93462  24.213  40.192  53.341
 1539W        W93463  17.258   4.768  52.448
 1540W        W93464  31.216  35.228  51.042
 1541W        W93465  27.205  12.730  51.970
 1542W        W93466  23.240   0.766  52.420
 1543W        W93467  20.249  30.702  52.878
 1544W        W93468  10.768  29.218  52.874
 1545W        W93469  19.740   6.756  51.527
 1546W        W93470  38.706  38.726  52.863
 1547W        W93471  15.244   5.771  53.338
 1548W        W93472   0.782  18.764  51.984
 1549W        W93473  43.683  31.739  51.948
 1550W        W93474  36.723  17.727  51.046
 1551W        W93475  34.238   3.773  53.790
 1552W        W93476  15.769  47.714  51.523
 1553W        W93477  47.181  30.740  50.149
 1554W        W93478   2.755  27.710  50.607
 1555W        W93479  33.736   9.271  53.336
 1556W        W93480  38.212   6.256  50.160
 1557W        W93481   1.791   3.774  52.864
 1558W        W93482   6.783   6.744  53.778
 1559W        W93483   0.771   0.287  52.427
 1560W        W93484  44.184  22.241  51.053
 1561W        W93485  36.213  29.728  51.518
 1562W        W93486  10.269  32.225  50.610
 1563W        W93487  38.204   4.778  51.523
 1564W        W93488  45.182  32.216  50.622
 1565W        W93489  18.226  23.238  52.870
 1566W        W93490  40.686  37.733  53.773
 1567W        W93491  42.229  13.750  51.978
 1568W        W93492  14.237  46.188  51.053
 1569W        W93493  33.208  30.717  50.618
 1570W        W93494   6.281  47.676  49.678
 1571W        W93495  46.209  17.268  52.896
 1572W        W93496  35.694   8.740  51.491
 1573W        W93497  18.757   6.265  51.063
 1574W        W93498  27.725  32.245  50.141
 1575W        W93499  18.244   2.255  49.697
 1576W        W93500   7.750  24.232  52.434
 1577W        W93501   1.267  16.228  53.326
 1578W        W93502  16.737   0.260  51.068
 1579W        W93503  10.737  40.219  52.883
 1580W        W93504  22.262  22.731  49.708
 1581W        W93505  19.244  33.242  53.773
 1582W        W93506  30.210   3.775  51.952
 1583W        W93507  30.214  20.221  52.407
 1584W        W93508  32.713  24.753  53.330
 1585W        W93509  33.219  11.232  52.863
 1586W        W93510  46.708  20.256  51.494
 1587W        W93511  25.232  16.763  51.067
 1588W        W93512  22.749  31.205  52.868
 1589W        W93513  45.707  32.713  50.139
 1590W        W93514  14.240  13.264  51.051
 1591W        W93515   3.253  37.700  50.605
 1592W        W93516   9.764  33.221  52.408
 1593W        W93517  31.744  23.749  52.904
 1594W        W93518  29.735  16.259  49.671
 1595W        W93519   6.746  45.686  51.505
 1596W        W93520  17.223   1.790  52.889
 1597W        W93521   4.282  29.244  49.681
 1598W        W93522   2.751  38.689  53.359
 1599W        W93523   6.284  24.213  51.490
 1600W        W93524  43.224  18.252  50.615
 1601W        W93525  18.240  18.263  53.811
 1602W        W93526  33.210  13.256  52.432
 1603W        W93527   0.265  29.736  51.490
 1604W        W93528  12.253  26.735  50.121
 1605W        W93529  23.723  39.205  49.682
 1606W        W93530  42.703  19.262  52.872
 1607W        W93531  37.235  22.748  53.317
 1608W        W93532   4.291  36.732  52.428
 1609W        W93533  19.260  17.252  52.876
 1610W        W93534  29.742  20.233  50.612
 1611W        W93535  20.745  36.698  50.155
 1612W        W93536  39.228  46.217  53.323
 1613W        W93537  40.228  14.243  52.426
 1614W        W93538  19.727  40.731  49.673
 1615W        W93539   4.784  42.714  52.902
 1616W        W93540  27.725  15.727  53.816
 1617W        W93541   3.246  21.736  52.896
 1618W        W93542  13.242  28.213  51.503
 1619W        W93543  16.756  27.231  53.340
 1620W        W93544   9.776  41.698  53.342
 1621W        W93545  11.271  11.246  52.878
 1622W        W93546  18.226  26.249  49.698
 1623W        W93547  21.222  22.744  49.707
 1624W        W93548  15.736   8.263  49.674
 1625W        W93549   1.278   5.291  52.882
 1626W        W93550  46.191  13.277  51.504
 1627W        W93551  27.708   9.269  50.618
 1628W        W93552  28.737  41.190  50.142
 1629W        W93553  17.728  23.230  52.889
 1630W        W93554  45.719  39.226  50.150
 1631W        W93555  20.736  39.690  53.347
 1632W        W93556   5.769  38.701  49.704
 1633W        W93557  12.762  27.221  53.789
 1634W        W93558  16.243  34.220  53.336
 1635W        W93559  11.232   1.781  49.700
 1636W        W93560  13.241  37.708  49.700
 1637W        W93561   3.766  23.241  51.493
 1638W        W93562  48.175  10.751  50.580
 1639W        W93563   7.270  15.771  49.674
 1640W        W93564   4.274  19.219  51.524
 1641W        W93565  35.707   7.759  50.147
 1642W        W93566   8.243  31.733  51.079
 1643W        W93567  36.216   4.263  53.792
 1644W        W93568  25.723   1.792  51.044
 1645W        W93569  10.739  21.736  52.428
 1646W        W93570  34.704  20.731  50.600
 1647W        W93571  10.256  20.720  50.623
 1648W        W93572  44.221  36.240  52.442
 1649W        W93573  31.718  19.248  51.068
 1650W        W93574  14.738   4.276  51.952
 1651W        W93575  42.190  22.746  49.665
 1652W        W93576   5.282  30.720  52.882
 1653W        W93577  10.739   9.246  50.602
 1654W        W93578  20.247  40.719  52.425
 1655W        W93579   8.752   1.793  50.134
 1656W        W93580  30.714  29.742  51.073
 1657W        W93581   1.276  43.705  50.127
 1658W        W93582  33.219  27.735  53.772
 1659W        W93583  48.201  16.750  53.789
 1660W        W93584  30.219  21.732  51.043
 1661W        W93585  39.729   4.280  51.066
 1662W        W93586  35.234  48.172  50.131
 1663W        W93587   1.287   1.282  51.491
 1664W        W93588  20.720  37.689  51.038
 1665W        W93589  17.759  16.250  52.444
 1666W        W93590   5.279   1.283  53.350
 1667W        W93591  28.206  35.237  51.984
 1668W        W93592  26.726  41.227  51.076
 1669W        W93593  26.749  34.737  51.062
 1670W        W93594  24.210  14.731  52.415
 1671W        W93595  26.722  11.731  51.494
 1672W        W93596  35.209  19.753  51.983
 1673W        W93597  12.768  11.239  52.422
 1674W        W93598  23.720  24.722  51.036
 1675W        W93599  30.247  27.753  50.604
 1676W        W93600  30.711  28.228  51.956
 1677W        W93601  13.745   3.276  51.078
 1678W        W93602  14.232  39.707  49.668
 1679W        W93603  22.724   9.238  51.052
 1680W        W93604  35.221   1.271  51.061
 1681W        W93605   4.764  18.236  53.792
 1682W        W93606  47.691   2.792  50.584
 1683W        W93607  32.200   3.286  50.583
 1684W        W93608  24.741  29.747  53.774
 1685W        W93609  17.760   9.739  51.077
 1686W        W93610  34.237  47.189  52.872
 1687W        W93611  24.714  16.737  52.896
 1688W        W93612  37.210   1.781  51.062
 1689W        W93613  30.744  30.735  49.699
 1690W        W93614  43.213  45.722  50.603
 1691W        W93615  24.249   4.262  50.142
 1692W        W93616  28.729  30.226  53.803
 1693W        W93617   8.761  48.184  51.034
 1694W        W93618   7.287  16.243  49.683
 1695W        W93619   9.752  38.219  51.519
 1696W        W93620  37.234  43.187  51.501
 1697W        W93621  46.215  13.763  51.982
 1698W        W93622   6.273   7.278  49.672
 1699W        W93623  13.746  16.247  53.802
 1700W        W93624  34.213  45.225  53.781
 1701W        W93625  15.753   5.277  51.042
 1702W        W93626  20.762  46.181  51.067
 1703W        W93627  12.777  28.220  51.049
 1704W        W93628  13.757  31.214  51.973
 1705W        W93629  20.264   8.738  51.950
 1706W        W93630  28.230  39.732  51.974
 1707W        W93631  39.707  24.212  51.036
 1708W        W93632  30.731  25.727  53.353
 1709W        W93633  32.213  21.260  49.690
 1710W        W93634   5.781  26.723  53.340
 1711W        W93635   7.262  16.731  52.434
 1712W        W93636  46.700   0.298  49.697
 1713W        W93637  12.770  23.252  49.702
 1714W        W93638   7.240  24.236  51.526
 1715W        W93639  47.213  47.709  51.501
 1716W        W93640  30.736  15.746  52.420
 1717W        W93641  46.680   6.276  52.405
 1718W        W93642  27.731   6.288  51.501
 1719W        W93643   5.769  21.720  49.697
 1720W        W93644   5.290  28.221  50.613
 1721W        W93645  31.721  46.713  50.129
 1722W        W93646  27.743  27.752  53.813
 1723W        W93647  46.689  14.255  49.666
 1724W        W93648  42.692   3.767  51.062
 1725W        W93649   3.778  34.207  53.325
 1726W        W93650  47.690  17.269  51.987
 1727W        W93651  16.271  25.251  50.122
 1728W        W93652  43.228   0.262  50.580
 1729W        W93653  21.720  26.754  51.507
 1730W        W93654  47.699  43.219  53.816
 1731W        W93655  37.227  40.732  53.358
 1732W        W93656   6.251  14.769  51.988
 1733W        W93657   5.254  20.749  53.783
 1734W        W93658  11.271  39.188  51.062
 1735W        W93659  42.720  29.218  52.886
 1736W        W93660  19.724  31.733  50.158
 1737W        W93661  23.730  26.737  53.773
 1738W        W93662  23.757  42.685  51.060
 1739W        W93663  35.206  16.761  52.409
 1740W        W93664  11.237  44.708  50.158
 1741W        W93665  42.689  45.683  51.966
 1742W        W93666  24.223  21.735  52.876
 1743W        W93667   7.241  40.706  49.687
 1744W        W93668   9.254  31.200  50.609
 1745W        W93669   0.779   5.763  50.609
 1746W        W93670  41.201   8.286  49.670
 1747W        W93671  12.259   3.773  50.610
 1748W        W93672  28.715  18.226  51.963
 1749W        W93673  35.713   4.273  51.965
 1750W        W93674  41.706  23.215  51.983
 1751W        W93675  32.709  25.232  52.884
 1752W        W93676  14.730  18.236  52.404
 1753W        W93677  21.739   4.292  51.959
 1754W        W93678   4.285  34.211  51.971
 1755W        W93679  28.721  37.204  50.154
 1756W        W93680  14.247  16.768  50.136
 1757W        W93681  11.244  12.276  49.700
 1758W        W93682  19.225  43.724  53.342
 1759W        W93683  26.725  16.245  50.158
 1760W        W93684   5.777  28.725  51.042
 1761W        W93685  31.204  42.187  50.146
 1762W        W93686  22.254  12.269  51.948
 1763W        W93687  10.774  43.192  52.416
 1764W        W93688  39.703  27.225  52.891
 1765W        W93689  44.180  24.228  51.058
 1766W        W93690  40.701  29.250  50.127
 1767W        W93691  41.198  10.265  52.881
 1768W        W93692  40.692   0.785  50.134
 1769W        W93693  43.201   2.259  51.077
 1770W        W93694  43.686   6.252  51.072
 1771W        W93695   4.742  29.743  50.160
 1772W        W93696   1.265  13.739  53.329
 1773W        W93697  27.227  16.748  50.600
 1774W        W93698  28.743  42.229  53.802
 1775W        W93699  30.211  29.247  51.532
 1776W        W93700  32.209  41.710  53.802
 1777W        W93701  23.726  29.221  53.816
 1778W        W93702  25.739  45.694  53.779
 1779W        W93703   8.737  35.231  50.596
 1780W        W93704  40.730   0.797  49.671
 1781W        W93705  40.715  23.728  53.785
 1782W        W93706   8.261  39.189  51.975
 1783W        W93707  30.207  31.747  50.159
 1784W        W93708  23.735  25.732  51.496
 1785W        W93709  26.734  29.208  51.948
 1786W        W93710  42.723   8.252  49.690
 1787W        W93711  45.203  35.713  53.351
 1788W        W93712  36.723  43.724  49.697
 1789W        W93713  11.759   7.256  49.691
 1790W        W93714  47.201  16.246  53.346
 1791W        W93715  45.188  42.702  51.079
 1792W        W93716  19.244  10.279  50.136
 1793W        W93717  24.710   0.768  50.619
 1794W        W93718  47.690  17.231  52.419
 1795W        W93719  44.712   5.267  52.416
 1796W        W93720   9.775  15.249  50.611
 1797W        W93721   3.272  28.707  51.982
 1798W        W93722   4.786   9.239  50.613
 1799W        W93723  22.248  39.688  51.063
 1800W        W93724  21.750  15.761  50.148
 1801W        W93725  41.196  32.226  52.863
 1802W        W93726  39.717   3.252  52.407
 1803W        W93727  18.732  32.729  52.895
 1804W        W93728  40.728  43.720  52.430
 1805W        W93729  39.718   5.276  50.133
 1806W        W93730  43.695  37.236  51.973
 1807W        W93731  38.692   7.737  53.776
 1808W        W93732  20.239  37.201  51.493
 1809W        W93733  47.201  45.209  50.121
 1810W        W93734   7.740  10.747  51.041
 1811W        W93735  17.234   8.254  50.131
 1812W        W93736  24.259   1.276  51.985
 1813W        W93737  23.234  22.722  50.585
 1814W        W93738   7.757  29.704  52.901
 1815W        W93739  12.261  29.234  51.972
 1816W        W93740  37.235  39.191  51.991
 1817W        W93741  18.233  33.700  53.799
 1818W        W93742   4.788  13.769  52.424
 1819W        W93743  44.689  26.213  52.409
 1820W        W93744  44.684  23.755  50.579
 1821W        W93745   4.789  36.716  53.337
 1822W        W93746  28.741  18.720  50.607
 1823W        W93747   1.772  27.750  50.154
 1824W        W93748   1.253  27.718  51.519
 1825W        W93749   4.770   9.265  51.074
 1826W        W93750  28.731   4.749  53.782
 1827W        W93751   2.767  41.230  51.532
 1828W        W93752  46.185  15.735  51.047
 1829W        W93753  25.736   2.783  50.602
 1830W        W93754  19.219   7.241  50.589
 1831W        W93755  10.251  22.218  51.521
 1832W        W93756  37.708  18.239  52.408
 1833W        W93757  15.752   6.749  52.875
 1834W        W93758   8.269  30.241  53.811
 1835W        W93759  42.223  36.700  52.419
 1836W        W93760  42.206  32.735  51.037
 1837W        W93761  21.757  20.727  51.980
 1838W        W93762  22.716  25.213  51.502
 1839W        W93763  42.724  11.262  53.790
 1840W        W93764  37.233  46.698  50.581
 1841W        W93765   3.252  24.753  50.614
 1842W        W93766  35.241  11.246  52.420
 1843W        W93767  25.241  29.721  50.622
 1844W        W93768  17.262  20.725  50.129
 1845W        W93769   8.758  40.691  51.523
 1846W        W93770  20.255  18.240  49.664
 1847W        W93771   2.263  32.742  53.330
 1848W        W93772   4.273  13.752  51.060
 1849W        W93773  17.251   7.256  49.674
 1850W        W93774  20.220   4.275  51.980
 1851W        W93775  32.712  16.752  52.415
 1852W        W93776  39.709  45.691  52.445
 1853W        W93777   2.760   2.755  52.434
 1854W        W93778   5.762   3.277  51.034
 1855W        W93779  40.721  47.674  51.976
 1856W        W93780  45.710   5.288  51.982
 1857W        W93781   0.291  24.739  51.506
 1858W        W93782  15.773  43.197  51.990
 1859W        W93783  37.204  40.717  52.892
 1860W        W93784  25.756  42.208  49.681
 1861W        W93785  12.238  29.203  51.079
 1862W        W93786  15.250  29.211  51.989
 1863W        W93787   1.754   5.753  52.864
 1864W        W93788  24.253  40.190  52.874
 1865W        W93789   3.792  11.265  50.579
 1866W        W93790  34.235  36.694  50.136
 1867W        W93791  12.242  18.738  53.799
 1868W        W93792  15.250   8.753  53.323
 1869W        W93793  44.713  13.767  51.043
 1870W        W93794   3.264  43.681  50.584
 1871W        W93795   8.258  47.180  53.799
 1872W        W93796   1.275  13.251  50.124
 1873W        W93797   5.270   8.781  53.358
 1874W        W93798  46.702  28.732  51.052
 1875W        W93799   2.265  32.716  51.050
 1876W        W93800   0.266   7.271  51.989
 1877W        W93801  34.736   1.275  50.143
 1878W        W93802  31.241  33.221  51.982
 1879W        W93803  47.174  33.712  50.142
 1880W        W93804  48.198  43.694  51.066
 1881W        W93805   0.752  44.209  50.621
 1882W        W93806  30.237  38.236  51.038
 1883W        W93807  21.228  27.248  50.603
 1884W        W93808  35.224   1.258  51.986
 1885W        W93809  21.228  46.681  53.332
 1886W        W93810  10.234   0.258  53.782
 1887W        W93811  26.724  28.205  52.425
 1888W        W93812   7.270   7.244  53.801
 1889W        W93813  43.223  37.232  50.595
 1890W        W93814  28.249  43.726  51.495
 1891W        W93815  38.697  43.227  52.424
 1892W        W93816  42.200  43.215  52.428
 1893W        W93817   0.294  45.192  51.054
 1894W        W93818   0.795  42.720  52.873
 1895W        W93819  40.194  40.718  53.332
 1896W        W93820  11.234  14.267  52.887
 1897W        W93821  44.204   1.753  51.975
 1898W        W93822  11.740  35.218  51.058
 1899W        W93823  39.732   6.288  50.577
 1900W        W93824  18.245  14.753  51.522
 1901W        W93825  15.255  28.236  52.875
 1902W        W93826  36.726  39.695  51.047
 1903W        W93827  17.745  22.761  50.163
 1904W        W93828  33.235   1.753  53.316
 1905W        W93829  14.237  15.263  52.409
 1906W        W93830   1.786  37.721  53.360
 1907W        W93831  39.720  39.211  53.773
 1908W        W93832  39.208   0.751  53.772
 1909W        W93833  36.694  25.721  53.789
 1910W        W93834   6.274  22.215  52.412
 1911W        W93835  26.748  13.745  49.665
 1912W        W93836  11.775   9.748  52.894
 1913W        W93837  46.693   2.291  49.667
 1914W        W93838   3.793  38.213  51.509
 1915W        W93839  19.248  44.684  50.135
 1916W        W93840  23.259   9.244  49.703
 1917W        W93841  34.230  13.752  49.707
 1918W        W93842  26.237   2.780  50.587
 1919W        W93843   9.250  39.210  53.328
 1920W        W93844  38.720  19.230  53.347
 1921W        W93845  21.731  18.725  53.340
 1922W        W93846  23.260  14.235  52.404
 1923W        W93847  23.734  36.191  51.960
 1924W        W93848  44.720  39.224  52.424
 1925W        W93849  30.700  47.673  51.535
 1926W        W93850  45.179  46.694  53.785
 1927W        W93851  13.275  18.225  53.811
 1928W        W93852  12.256  47.188  52.875
 1929W        W93853  18.249   6.279  52.428
 1930W        W93854  15.769  45.709  51.947
 1931W        W93855  38.216  37.193  52.444
 1932W        W93856  35.222   0.786  50.161
 1933W        W93857  34.227  19.247  51.968
 1934W        W93858  31.245  26.744  50.165
 1935W        W93859  39.206  35.212  51.038
 1936W        W93860  24.218  17.253  50.595
 1937W        W93861  29.227   0.257  51.058
 1938W        W93862   2.281   0.290  51.988
 1939W        W93863  14.257   6.286  50.582
 1940W        W93864  41.694  19.723  53.787
 1941W        W93865  22.721  36.224  53.344
 1942W        W93866  24.740  36.196  49.671
 1943W        W93867  43.702   2.786  52.884
 1944W        W93868  17.268  41.687  50.594
 1945W        W93869  27.212  30.708  51.524
 1946W        W93870  23.737   8.260  53.804
 1947W        W93871   4.779  39.708  53.812
 1948W        W93872   9.256  37.715  51.965
 1949W        W93873  38.718  37.708  50.598
 1950W        W93874   1.279  17.239  51.524
 1951W        W93875  47.675  13.248  53.810
 1952W        W93876   2.749   3.748  51.494
 1953W        W93877   8.745  17.737  53.817
 1954W        W93878  18.721  43.712  52.889
 1955W        W93879  14.762  32.705  50.605
 1956W        W93880   0.282  46.221  50.146
 1957W        W93881  44.221  33.734  50.152
 1958W        W93882  34.194  19.262  50.135
 1959W        W93883  38.205   8.752  52.873
 1960W        W93884   7.242  20.233  51.495
 1961W        W93885   9.237  30.710  52.439
 1962W        W93886  25.753  20.735  50.141
 1963W        W93887  36.231   1.271  49.668
 1964W        W93888  17.225   0.274  49.667
 1965W        W93889   0.776  24.249  52.411
 1966W        W93890  30.727  25.743  52.893
 1967W        W93891  10.736   4.287  49.698
 1968W        W93892  25.240  45.220  49.685
 1969W        W93893  38.716  41.217  52.434
 1970W        W93894   5.278  16.237  50.150
 1971W        W93895  44.216   4.762  53.799
 1972W        W93896  31.201  44.719  51.961
 1973W        W93897  46.191  39.209  51.041
 1974W        W93898  30.230  32.703  49.672
 1975W        W93899  20.240  23.746  52.861
 1976W        W93900  12.737   9.743  53.356
 1977W        W93901  32.227   6.773  51.048
 1978W        W93902  23.240  44.178  52.419
 1979W        W93903  19.747  11.777  52.886
 1980W        W93904   3.269  40.710  51.982
 1981W        W93905   4.780  42.207  51.959
 1982W        W93906   2.276  42.216  53.784
 1983W        W93907  42.184  24.235  50.613
 1984W        W93908   8.743  48.175  50.146
 1985W        W93909  14.238  41.188  51.073
 1986W        W93910  10.778  38.209  51.506
 1987W        W93911  17.764  41.725  53.804
 1988W        W93912  30.248  23.219  52.899
 1989W        W93913  35.713  26.247  49.699
 1990W        W93914   8.255  40.230  53.347
 1991W        W93915  22.243  32.720  52.438
 1992W        W93916   6.764   1.273  51.534
 1993W        W93917   7.276  21.245  52.406
 1994W        W93918  41.730  27.226  52.860
 1995W        W93919  25.209  35.738  49.709
 1996W        W93920  43.208  24.248  53.356
 1997W        W93921  29.743  10.257  49.693
 1998W        W93922  32.713  46.699  51.991
 1999W        W93923   8.774  15.743  50.585
 2000W        W93924  40.193  22.233  51.509
 2001W        W93925  43.187  46.181  53.353
 2002W        W93926  40.189  36.221  52.420
 2003W        W93927   9.239  12.768  50.146
 2004W        W93928  46.715  26.250  49.673
 2005W        W93929  35.222  24.233  50.621
 2006W        W93930  11.740  29.750  52.414
 2007W        W93931   3.748  45.220  50.589
 2008W        W93932  25.213  40.731  51.966
 2009W        W93933  29.748  36.716  50.160
 2010W        W93934  43.685  26.710  49.695
 2011W        W93935  36.704   8.253  50.596
 2012W        W93936  27.710  40.720  49.692
 2013W        W93937   3.279  48.216  51.038
 2014W        W93938   3.276  41.195  51.535
 2015W        W93939  37.694  37.216  51.514
 2016W        W93940  10.738  15.268  51.500
 2017W        W93941  15.754  18.750  50.589
 2018W        W93942  46.717  29.724  49.665
 2019W        W93943  20.725  24.224  50.143
 2020W        W93944  14.276   6.261  52.426
 2021W        W93945  17.254   6.745  49.670
 2022W        W93946  26.729  16.743  49.700
 2023W        W93947  36.217   0.262  50.588
 2024W        W93948  35.693   2.263  51.060
 2025W        W93949   6.771  43.681  51.974
 2026W        W93950  37.198  23.213  53.356
 2027W        W93951   7.740  43.184  53.338
 2028W        W93952   7.768  12.232  51.989
 2029W        W93953  47.211   9.244  51.051
 2030W        W93954   1.784  11.256  51.068
 2031W        W93955  31.739  18.242  52.444
 2032W        W93956  31.726  47.188  51.501
 2033W        W93957  11.744  41.226  52.883
 2034W        W93958  27.740  20.237  50.577
 2035W        W93959   0.289  36.738  52.416
 2036W        W93960  33.732   5.774  51.078
 2037W        W93961  15.226  37.189  49.667
 2038W        W93962  19.745   6.245  49.694
 2039W        W93963  48.171  38.711  52.428
 2040W        W93964   1.283  35.221  51.989
 2041W        W93965  48.215  14.251  50.592
 2042W        W93966   8.773  45.207  49.702
 2043W        W93967  20.245  29.731  53.344
 2044W        W93968   4.753  31.705  52.891
 2045W        W93969  12.236  15.239  52.875
 2046W        W93970  46.177  18.720  52.894
 2047W        W93971  11.240  33.709  53.357
 2048W        W93972   2.270  32.701  53.792
 2049W        W93973  48.213  33.735  51.493
 2050W        W93974  41.186  22.742  51.947
 2051W        W93975  10.257  22.736  53.316
 2052W        W93976  24.722   6.763  52.435
 2053W        W93977  41.205   8.274  50.622
 2054W        W93978  30.229  17.768  51.054
 2055W        W93979  37.706   3.265  52.418
 2056W        W93980  37.204  35.715  51.960
 2057W        W93981   8.279  45.700  51.048
 2058W        W93982  40.686  15.234  49.691
 2059W        W93983  16.762  34.732  50.127
 2060W        W93984  46.190  38.231  50.155
 2061W        W93985  12.266   1.795  51.075
 2062W        W93986  27.235  37.701  51.950
 2063W        W93987   7.750  39.203  51.491
 2064W        W93988  31.214  19.237  50.166
 2065W        W93989  18.232  42.208  50.583
 2066W        W93990  26.742  24.738  51.975
 2067W        W93991  45.221   8.259  51.521
 2068W        W93992  47.689  23.728  53.799
 2069W        W93993  47.714  45.188  51.061
 2070W        W93994  25.236   7.282  53.326
 2071W        W93995  46.222   6.278  53.808
 2072W        W93996  41.222  20.740  50.134
 2073W        W93997  12.238  40.722  51.045
 2074W        W93998  25.237  27.728  51.043
 2075W        W93999  19.266   8.243  52.898
 2076W        W94000  43.719  25.723  53.774
 2077W        W94001  46.207  22.220  51.493
 2078W        W94002  37.697  28.735  51.042
 2079W        W94003  47.713  24.745  51.067
 2080W        W94004   5.771  29.751  53.793
 2081W        W94005   1.273   4.751  53.804
 2082W        W94006  32.742  21.224  52.406
 2083W        W94007  28.228   3.754  51.034
 2084W        W94008  36.205  29.702  51.980
 2085W        W94009  33.717  43.715  52.887
 2086W        W94010   0.781  47.712  51.037
 2087W        W94011   1.261   2.754  49.678
 2088W        W94012  47.714   1.278  50.579
 2089W        W94013   3.284  38.695  50.591
 2090W        W94014  45.676   3.769  52.891
 2091W        W94015  11.770  46.182  53.347
 2092W        W94016  33.701  29.206  53.773
 2093W        W94017  34.739  22.221  51.491
 2094W        W94018   1.755  28.204  52.899
 2095W        W94019  40.692  27.724  51.990
 2096W        W94020   6.758  25.222  49.709
 2097W        W94021  38.725   9.780  49.701
 2098W        W94022  23.215  19.246  50.586
 2099W        W94023  26.226  21.229  52.447
 2100W        W94024  44.704  40.711  52.409
 2101W        W94025  32.704  47.715  49.680
 2102W        W94026   0.259  39.224  53.345
 2103W        W94027  14.730   9.268  49.677
 2104W        W94028  26.743  31.720  53.806
 2105W        W94029   5.776  19.721  51.494
 2106W        W94030   7.778   6.766  51.981
 2107W        W94031   5.261  29.708  50.597
 2108W        W94032  14.230  27.724  52.870
 2109W        W94033  22.732   9.277  53.345
 2110W        W94034  37.224  28.233  52.885
 2111W        W94035  36.199  38.225  52.870
 2112W        W94036  39.685   0.296  49.675
 2113W        W94037  33.214  23.718  52.421
 2114W        W94038  28.751  42.699  51.517
 2115W        W94039  35.700  16.767  50.591
 2116W        W94040  43.200  12.763  50.146
 2117W        W94041  40.701  39.206  53.793
 2118W        W94042  21.242  13.764  52.862
 2119W        W94043  15.734  29.743  51.503
 2120W        W94044   9.243  26.253  50.618
 2121W        W94045  14.739  40.707  53.817
 2122W        W94046  24.723  41.686  50.581
 2123W        W94047   4.270   2.263  52.865
 2124W        W94048  46.209  29.221  51.072
 2125W        W94049  11.279  39.698  52.863
 2126W        W94050  39.720  41.696  50.151
 2127W        W94051   6.287  44.196  50.124
 2128W        W94052  42.206  41.715  49.691
 2129W        W94053   7.786  46.201  50.153
 2130W        W94054  16.235  35.214  51.495
 2131W        W94055  34.232  40.732  49.681
 2132W        W94056  45.685  30.235  51.531
 2133W        W94057   3.747  33.210  51.535
 2134W        W94058  19.243  20.727  53.326
 2135W        W94059   2.776  41.701  53.804
 2136W        W94060  20.259  34.198  52.405
 2137W        W94061  15.764  41.721  50.155
 2138W        W94062  30.707  25.753  53.800
 2139W        W94063  36.209   5.254  50.131
 2140W        W94064   4.250   5.262  53.356
 2141W        W94065  19.750  10.242  51.980
 2142W        W94066   2.749  30.722  53.773
 2143W        W94067   7.276  38.219  50.155
 2144W        W94068  39.197  18.746  49.679
 2145W        W94069  27.236  24.732  50.599
 2146W        W94070  30.241  41.187  50.584
 2147W        W94071   5.290  23.213  52.882
 2148W        W94072  47.688  20.242  53.317
 2149W        W94073  44.686  38.234  51.077
 2150W        W94074  21.226  13.263  49.674
 2151W        W94075  23.217  21.724  52.862
 2152W        W94076  41.199   9.735  53.816
 2153W        W94077  36.695   9.748  52.412
 2154W        W94078   9.268  11.756  49.700
 2155W        W94079   3.772  44.223  52.884
 2156W        W94080   0.281  23.750  49.690
 2157W        W94081  35.203  43.721  52.896
  48.42000  48.42000   4.56414
