#include "toppar/martini_v3.0.0.itp"
#include "toppar/1xq8_cg_WALL.itp"
#include "toppar/1xq8_cg.itp"
#include "toppar/martini_v3.0.0_ions_v1.itp"
#include "toppar/martini_v3.0.0_nucleobases_v1.itp"
#include "toppar/martini_v3.0.0_phospholipids_v1.itp"
#include "toppar/martini_v3.0.0_phospholipids_v1_matthieu.itp"
#include "toppar/martini_v3.0.0_small_molecules_v1.itp"
#include "toppar/martini_v3.0.0_solvents_v1.itp"
#include "toppar/martini_v3.0.0_sugars_v1.itp"
#include "toppar/martini_v3.0_sterols_v1.0.itp"
#include "toppar/PI45P2_unsat.itp"

[ system ]
; name
Insanely solvated protein.

[ molecules ]
; name  number
Protein_WALL    10
Protein         40
POPC          2778
POPG          1190
POPC          2778
POPG          1190
W           961005
NA           10959
CL            8129
