[ BB ]
1 3 5 7 11 13 16 17 19 21 24 26 29 31 32 34 36 38 40 42 44 47 49 52 54 55 57 59 61 63 65 66 69 71 74 76 77 79 81 86 88 89 91 94 96 99 101 102 104 106 110 111 113 115 117 119 121 123 126 128 131 133 135 137 139 141 143 144 145 147 149 151 153 154 156 158 160 162 164 166 169 171 173 175 176 178 179 181 183 185 187 189 191 192 196 198 201 204 206 208 210 211 214 216 218 220 221 223 225 227 229 230 232 234 236 238 240 242 244 246 248 250 252 254 256 261 263 265 267 269 271 273 274 279 281 283 288 290 292 294
